Year;CITATION;SAMPLE NAME;UNIQUE_ID;LOCATION;LOCATION COMMENT;LATITUDE (MIN.);LONGITUDE (MIN.);LATITUDE (MAX.);LONGITUDE (MAX.);ELEVATION (MIN.);ELEVATION (MAX.);SAMPLING TECHNIQUE;DRILLING DEPTH (MIN.);DRILLING DEPTH (MAX.);LAND/SEA (SAMPLING);ROCK TYPE;ROCK NAME;ROCK TEXTURE;SAMPLE COMMENT;AGE (MIN.);AGE (MAX.);GEOLOGICAL AGE;GEOLOGICAL AGE PREFIX;ERUPTION YEAR;ALTERATION;ALTERATION TYPE;TYPE OF MATERIAL;MINERAL / COMPONENT;SPOT (MINERAL);CRYSTAL;RIM / CORE (MINERAL GRAINS);GRAIN SIZE;PRIMARY/SECONDARY;INCLUSION TYPE;SPOT (INCLUSION);MINERAL (INCLUSION);RIM / CORE (INCLUSION);HOSTMINERAL (INCLUSION);HEATING;HEATING TEMPERATURE (?C);SIO2(WT%);TIO2(WT%);AL2O3(WT%);CR2O3(WT%);V2O3(WT%);V2O5(WT%);FE2O3T(WT%);FE2O3(WT%);FEOT(WT%);FEO(WT%);CAO(WT%);MGO(WT%);MNO(WT%);BAO(WT%);SRO(WT%);NIO(WT%);ZNO(WT%);COO(WT%);K2O(WT%);;;;NA2O(WT%);;;;P2O5(WT%);H2O(WT%);H2OP(WT%);H2OM(WT%);CO2(WT%);F(WT%);CL(WT%);CL2(WT%);SO3(WT%);S(WT%);LOI(WT%);O(WT%);SI(WT%);AL(WT%);TI(WT%);FE(WT%);MG(WT%);MN(WT%);CA(WT%);K(WT%): altern. values or methods;;;;NA(WT%);CR(WT%);NI(WT%);HE(CCMSTP/G);HE3(CCMSTP/G);HE4(CCMSTP/G): altern. values or methods;;;;LI(PPM);BE(PPM);B(PPM);F(PPM);NE20(CCMSTP/G);NE22(CCMSTP/G);P(PPM);S(PPM);CL(PPM);AR36(CCMSTP/G);AR40(CCMSTP/G);AR40(MOL/G): altern. values or methods;;;;AR40(PPB);K(PPM);SC(PPM): altern. values or methods;;;;;;TI(PPM);V(PPM): altern. values or methods;;;;CR(PPM): altern. values or methods;;;;MN(PPM);FE(PPM);CO(PPM): altern. values or methods;;;;;;NI(PPM): altern. values or methods;;;;;;CU(PPM): altern. values or methods;;;;ZN(PPM): altern. values or methods;;;;GA(PPM): altern. values or methods;;;;GE(PPM);AS(PPM);KR84(CCMSTP/G);RB(PPM): altern. values or methods;;;;SR(PPM): altern. values or methods;;;;Y(PPM): altern. values or methods;;;;ZR(PPM): altern. values or methods;;;;NB(PPM): altern. values or methods;;;;MO(PPM);RU(PPB);RH(PPB);PD(PPB);IN(PPM);SN(PPM);SB(PPM);XE132(CCMSTP/G);CS(PPM);BA(PPM): altern. values or methods;;;;LA(PPM): altern. values or methods;;;;CE(PPM): altern. values or methods;;;;PR(PPM): altern. values or methods;;;;ND(PPM): altern. values or methods;;;;SM(PPM): altern. values or methods;;;;EU(PPM): altern. values or methods;;;;GD(PPM);TB(PPM): altern. values or methods;;;;DY(PPM);HO(PPM);ER(PPM);TM(PPM);YB(PPM): altern. values or methods;;;;LU(PPM);HF(PPM): altern. values or methods;;;;TA(PPM);W(PPM);RE(PPB): altern. values or methods;;;;RE(PPT);OS(PPB): altern. values or methods;;;;OS(PPT);IR(PPB);PT(PPB);AU(PPB);HG(PPB);TL(PPM);PB(PPM): altern. values or methods;;;;PB210_ACT(DPM/G);TH(PPM): altern. values or methods;;;;TH(PPB);U(PPM): altern. values or methods;;;;U(PPB);CO2(PPM);H2O(PPM);ND143_ND144;ND148_ND144;SM147_ND144;SR87_SR86;RB87_SR86;PB206_PB204: altern. values or methods;;;;PB206_PB207;PB206_PB208;PB207_PB204: altern. values or methods;;;;PB207_PB206;PB208_PB204: altern. values or methods;;;;PB208_PB206;OS187_OS186;OS187_OS188: altern. values or methods;;;;RE187_OS188: altern. values or methods;;;;HF176_HF177;HE3_HE4;HE3_HE4(R/R(A)): altern. values or methods;;;;HE4_HE3: altern. values or methods;;;;;;HE4_HE3(R/R(A)): altern. values or methods;;;;AR38_AR36;AR40_AR36;NE20_NE22;NE21_NE22;XE129_XE132;PB206_U238;PB207_U235;PB210_U238;TH232_U238;U238_PB204;D13C(VS SMOW);D17O(VS VSMOW);D18O(PER MIL);D18O(VS PDB);D18O(VS SMOW);D18O(VS VSMOW);D34S(VS CDT);D44_40CA(VS SRM915A);D56FE(VS IRMM-014);DD(VS SMOW);ALBITE(MOL%);ACMITE(MOL%);ANORTHITE(MOL%);ENSTATITE(MOL%);FAYALITE(MOL%);FORSTERITE(MOL%);FERROSILITE(MOL%);HEMATITE(MOL%);LARNITE(MOL%);ORTHOCLASE(MOL%);PSEUDOBROOKITE(MOL%);TEPHROITE(MOL%);ULVOSPINEL(MOL%);WOLLASTONITE(MOL%);AGE(KA);AGE(MA): altern. values or methods;;;;;;;;AGE_PB207_PB206(MA);AGE_PB207_U235(MA);AGE_PB206_U238(MA);
1992;[1324] COELLO J. (1992);samp. F.73.AC;;CANARY ISLANDS / FUERTEVENTURA / SERIES I, SOUTHERN EDIFICE;JANDÍA PENINSULA, PICO DE LA ZARZA, SOUTHERN SIDE;28.1;-14.35;28.1;-14.35;750;750;OUTCROP;;;SUBAERIAL;VOLCANIC ROCK;ANKARAMITE;MICROCRYSTALLINE GROUNDMASS;;;;;;;;;WHOLE ROCK;;;;;;;;;;;;;;;;;;;;;;;;;;;;;;;;;;;;;;;;;;;;;;;;;;;;;;;;;;;1.6;NOT;;;;;;;;;;;;;;;;;;;;;;;;;;;1.66;;;;;;;;;;;;;;;;;;;;;;;;;;;;;;;;;;;;;;;;;;;;;;;;;;;;;;;;;;;;;;;;;;;;;;;;;;;;;;;;;;;;;;;;;;;;;;;;;;;;;;;;;;;;;;;;;;;;;;;;;;;;;;;;;;;;;;;;;;;;;;;;;;;;;;;;;;;;;;;;;;;;;;;;;;;;;;;;;;;;;;;;;;;;;;;;;;;;;;;;;;;;;;;;;;;;;;;;;;;;;;;;;;;;;;;;;;;14900;;;;;;;;;;;;
1992;[1324] COELLO J. (1992);samp. L.12.F;;CANARY ISLANDS / LANZAROTE / SERIES I;TÍAS, CANTERA DE LAS MAJADAS;28.96;-13.63;28.96;-13.63;160;160;OUTCROP;;;SUBAERIAL;VOLCANIC ROCK;ANKARAMITE;PORPHYRITIC;;;;;;;;;WHOLE ROCK;;;;;;;;;;;;;;;;;;;;;;;;;;;;;;;;;;;;;;;;;;;;;;;;;;;;;;;;;;;0.736;NOT;;;;;;;;;;;;;;;;;;;;;;;;;;;0.31;;;;;;;;;;;;;;;;;;;;;;;;;;;;;;;;;;;;;;;;;;;;;;;;;;;;;;;;;;;;;;;;;;;;;;;;;;;;;;;;;;;;;;;;;;;;;;;;;;;;;;;;;;;;;;;;;;;;;;;;;;;;;;;;;;;;;;;;;;;;;;;;;;;;;;;;;;;;;;;;;;;;;;;;;;;;;;;;;;;;;;;;;;;;;;;;;;;;;;;;;;;;;;;;;;;;;;;;;;;;;;;;;;;;;;;;;;;6100;;;;;;;;;;;;
1985;[1503] STEINTHORSSON S. (1985);samp. SAL39;;ICELAND / ICELAND / EYJAFJÖLL;SOUTHEASTERN ZONE, HVAMMSMULI;63.5;-19.5;63.5;-19.5;;;OUTCROP;;;SUBAERIAL;VOLCANIC ROCK;ANKARAMITE;;;;;;;;;;WHOLE ROCK;;;;;;;;;;;;;;47.1;1.62;12.22;;;;;0.91;;8.13;12.34;15.04;0.19;;;;;;0.32;NOT;;;1.39;NOT;;;0.15;0.2;;;;;;;;;;;;;;;;;;;;;;;;;;;;;;;;;;;;;;;;;;;;;;;;;;;;;;;;;;;;;;;;;;;;;;;;;;;;;;;;;;;;;;;;;;;;8;NOT;;;235;NOT;;;8;NOT;;;110;NOT;;;;;;;;;;;;;;;;;;;;;;;;;;;;;;;;;;;;;;;;;;;;;;;;;;;;;;;;;;;;;;;;;;;;;;;;;;;;;;;;;;;;;;;;;;;;;;;;;;;;;;;;;;;;;;;;;;;;;;;;;;;;;;;;;;;;;;;;;;;;;;;;;;;;;;;;;;;;;;;;;;;;;;;;;;;;;;;;;;;;;;;;;;;;
1979;[1815] JAKOBSSON S. P. (1979);samp. 654POR;;ICELAND / ICELAND / EYJAFJÖLL;SOUTHEASTERN ZONE, HVAMMSMULI;63.5;-19.5;63.5;-19.5;;;OUTCROP;;;SUBAERIAL;VOLCANIC ROCK;ANKARAMITE;PORPHYRITIC;;;;;;;;;WHOLE ROCK;;;;;;;;;;;;;;47.08;2.33;12.25;;;;;2.46;;9.4;11.4;11.7;0.19;;;;;;0.43;XRF;;;2.13;XRF;;;0.26;0.34;;;;;;;;;;;;;;;;;;;;;;;;;;;;;;;;;;;;;;;;;;;;;;;;;;;;;;;;;;;;;;;;;;;;;;;;;;;;;;;;;;;;;;;;;;;;;;;;;;;;;;;;;;;;;;;;;;;;;;;;;;;;;;;;;;;;;;;;;;;;;;;;;;;;;;;;;;;;;;;;;;;;;;;;;;;;;;;;;;;;;;;;;;;;;;;;;;;;;;;;;;;;;;;;;;;;;;;;;;;;;;;;;;;;;;;;;;;;;;;;;;;;;;;;;;;;;;;;;;;;;;;;;;;;;;;;;;;;;;;;;;;;;;;;;;;;;
1979;[1815] JAKOBSSON S. P. (1979);samp. 654NON;;ICELAND / ICELAND / EYJAFJÖLL;SOUTHEASTERN ZONE, HVAMMSMULI;63.5;-19.5;63.5;-19.5;;;OUTCROP;;;SUBAERIAL;VOLCANIC ROCK;ANKARAMITE;NONPORPHYRITIC;;;;;;;;;WHOLE ROCK;;;;;;;;;;;;;;47.47;2.36;13.78;;;;;2.88;;7.98;12.17;9.23;0.17;;;;;;0.44;XRF;;;1.98;XRF;;;0.22;0.62;;;;;;;;;;;;;;;;;;;;;;;;;;;;;;;;;;;;;;;;;;;;;;;;;;;;;;;;;;;;;;;;;;;;;;;;;;;;;;;;;;;;;;;;;;;;;;;;;;;;;;;;;;;;;;;;;;;;;;;;;;;;;;;;;;;;;;;;;;;;;;;;;;;;;;;;;;;;;;;;;;;;;;;;;;;;;;;;;;;;;;;;;;;;;;;;;;;;;;;;;;;;;;;;;;;;;;;;;;;;;;;;;;;;;;;;;;;;;;;;;;;;;;;;;;;;;;;;;;;;;;;;;;;;;;;;;;;;;;;;;;;;;;;;;;;;;
1979;[1815] JAKOBSSON S. P. (1979);samp. S12;;ICELAND / ICELAND / EYJAFJÖLL;SOUTHEASTERN ZONE, JÖKULHAUS;63.5;-19.5;63.5;-19.5;;;OUTCROP;;;SUBAERIAL;VOLCANIC ROCK;ANKARAMITE;;BRECCIA;;;;;;;;WHOLE ROCK;;;;;;;;;;;;;;45.49;1.3;8.16;;;;;2.6;;7.8;11.04;18.49;0.16;;;;;;0.34;XRF;;;1.18;XRF;;;0.13;3.36;;;;;;;;;;;;;;;;;;;;;;;;;;;;;;;;;;;;;;;;;;;;;;;;;;;;;;;;;;;;;;;;;;;;;;;;;;;;;;;;;;;;;;;;;;;;;;;;;;;;;;;;;;;;;;;;;;;;;;;;;;;;;;;;;;;;;;;;;;;;;;;;;;;;;;;;;;;;;;;;;;;;;;;;;;;;;;;;;;;;;;;;;;;;;;;;;;;;;;;;;;;;;;;;;;;;;;;;;;;;;;;;;;;;;;;;;;;;;;;;;;;;;;;;;;;;;;;;;;;;;;;;;;;;;;;;;;;;;;;;;;;;;;;;;;;;;
2000;[7688] FODOR R. V. (2000);samp. ANKAMARITE;;TRINDADE-VITORIA RISE / COLUMBIA;;-20.7;-31.85;-20.7;-31.85;;;DREDGE;;;SUBAQUATIC;VOLCANIC ROCK;ANKARAMITE;;DREDGE 2;10000000;10000000;MIOCENE;;;;;MINERAL / COMPONENT (INCL. GROUNDMASS);RHÖNITE;;;;;PRIMARY;;;;;;;;23.7;12;16.5;0;;;;;;21.6;12.2;13.3;0.16;;;;;;0.01;EMP (EPMA);;;0.88;EMP (EPMA);;;;;;;;;;;;;;;;;;;;;;;;;;;;;;;;;;;;;;;;;;;;;;;;;;;;;;;;;;;;;;;;;;;;;;;;;;;;;;;;;;;;;;;;;;;;;;;;;;;;;;;;;;;;;;;;;;;;;;;;;;;;;;;;;;;;;;;;;;;;;;;;;;;;;;;;;;;;;;;;;;;;;;;;;;;;;;;;;;;;;;;;;;;;;;;;;;;;;;;;;;;;;;;;;;;;;;;;;;;;;;;;;;;;;;;;;;;;;;;;;;;;;;;;;;;;;;;;;;;;;;;;;;;;;;;;;;;;;;;;;;;;;;;;;;;;;;;;;
1994;[8028] NONO A. (1994);samp. 4B;;MID-AFRICAN RIFT SYSTEM / CAMEROON LINE (CONTINENTAL SECTION) / ADAMAWA (ADAMAOUA) PLATEAU / TCHABAL NGANHA;;7.33;13.92;7.42;14.08;;;OUTCROP;;;SUBAERIAL;VOLCANIC ROCK;ANKARAMITE;PORPHYRITIC;MIDDLE FLOW UNIT;;;NEOGENE;;;;;MINERAL / COMPONENT (INCL. GROUNDMASS);RHÖNITE;;MICROCRYST;;;PRIMARY;;;;;;;;24.02;12.03;16.95;;;;;;22.59;;11.52;11.8;0.07;;;;;;0.03;EMP (EPMA);;;1.11;EMP (EPMA);;;;;;;;;;;;;;;;;;;;;;;;;;;;;;;;;;;;;;;;;;;;;;;;;;;;;;;;;;;;;;;;;;;;;;;;;;;;;;;;;;;;;;;;;;;;;;;;;;;;;;;;;;;;;;;;;;;;;;;;;;;;;;;;;;;;;;;;;;;;;;;;;;;;;;;;;;;;;;;;;;;;;;;;;;;;;;;;;;;;;;;;;;;;;;;;;;;;;;;;;;;;;;;;;;;;;;;;;;;;;;;;;;;;;;;;;;;;;;;;;;;;;;;;;;;;;;;;;;;;;;;;;;;;;;;;;;;;;;;;;;;;;;;;;;;;;;;;;
1994;[8028] NONO A. (1994);samp. 4B;;MID-AFRICAN RIFT SYSTEM / CAMEROON LINE (CONTINENTAL SECTION) / ADAMAWA (ADAMAOUA) PLATEAU / TCHABAL NGANHA;;7.33;13.92;7.42;14.08;;;OUTCROP;;;SUBAERIAL;VOLCANIC ROCK;ANKARAMITE;PORPHYRITIC;MIDDLE FLOW UNIT;;;NEOGENE;;;;;MINERAL / COMPONENT (INCL. GROUNDMASS);RHÖNITE;;MICROCRYST;;;PRIMARY;;;;;;;;24.19;11.74;16.27;;;;;;22.98;;11.42;11.59;0.23;;;;;;0.01;EMP (EPMA);;;1.23;EMP (EPMA);;;;;;;;;;;;;;;;;;;;;;;;;;;;;;;;;;;;;;;;;;;;;;;;;;;;;;;;;;;;;;;;;;;;;;;;;;;;;;;;;;;;;;;;;;;;;;;;;;;;;;;;;;;;;;;;;;;;;;;;;;;;;;;;;;;;;;;;;;;;;;;;;;;;;;;;;;;;;;;;;;;;;;;;;;;;;;;;;;;;;;;;;;;;;;;;;;;;;;;;;;;;;;;;;;;;;;;;;;;;;;;;;;;;;;;;;;;;;;;;;;;;;;;;;;;;;;;;;;;;;;;;;;;;;;;;;;;;;;;;;;;;;;;;;;;;;;;;;
1994;[8028] NONO A. (1994);samp. 4B;;MID-AFRICAN RIFT SYSTEM / CAMEROON LINE (CONTINENTAL SECTION) / ADAMAWA (ADAMAOUA) PLATEAU / TCHABAL NGANHA;;7.33;13.92;7.42;14.08;;;OUTCROP;;;SUBAERIAL;VOLCANIC ROCK;ANKARAMITE;PORPHYRITIC;MIDDLE FLOW UNIT;;;NEOGENE;;;;;MINERAL / COMPONENT (INCL. GROUNDMASS);RHÖNITE;;MICROCRYST;;;PRIMARY;;;;;;;;25.11;10.95;16.41;;;;;;21.38;;11.64;12.59;0.3;;;;;;0;EMP (EPMA);;;1.2;EMP (EPMA);;;;;;;;;;;;;;;;;;;;;;;;;;;;;;;;;;;;;;;;;;;;;;;;;;;;;;;;;;;;;;;;;;;;;;;;;;;;;;;;;;;;;;;;;;;;;;;;;;;;;;;;;;;;;;;;;;;;;;;;;;;;;;;;;;;;;;;;;;;;;;;;;;;;;;;;;;;;;;;;;;;;;;;;;;;;;;;;;;;;;;;;;;;;;;;;;;;;;;;;;;;;;;;;;;;;;;;;;;;;;;;;;;;;;;;;;;;;;;;;;;;;;;;;;;;;;;;;;;;;;;;;;;;;;;;;;;;;;;;;;;;;;;;;;;;;;;;;;
1994;[8028] NONO A. (1994);samp. 4B;;MID-AFRICAN RIFT SYSTEM / CAMEROON LINE (CONTINENTAL SECTION) / ADAMAWA (ADAMAOUA) PLATEAU / TCHABAL NGANHA;;7.33;13.92;7.42;14.08;;;OUTCROP;;;SUBAERIAL;VOLCANIC ROCK;ANKARAMITE;PORPHYRITIC;MIDDLE FLOW UNIT;;;NEOGENE;;;;;MINERAL / COMPONENT (INCL. GROUNDMASS);RHÖNITE;;MICROCRYST;;;PRIMARY;;;;;;;;26.57;11.02;15.37;;;;;;21.61;;10.91;12.62;0.13;;;;;;0.02;EMP (EPMA);;;1.39;EMP (EPMA);;;;;;;;;;;;;;;;;;;;;;;;;;;;;;;;;;;;;;;;;;;;;;;;;;;;;;;;;;;;;;;;;;;;;;;;;;;;;;;;;;;;;;;;;;;;;;;;;;;;;;;;;;;;;;;;;;;;;;;;;;;;;;;;;;;;;;;;;;;;;;;;;;;;;;;;;;;;;;;;;;;;;;;;;;;;;;;;;;;;;;;;;;;;;;;;;;;;;;;;;;;;;;;;;;;;;;;;;;;;;;;;;;;;;;;;;;;;;;;;;;;;;;;;;;;;;;;;;;;;;;;;;;;;;;;;;;;;;;;;;;;;;;;;;;;;;;;;;
1994;[8028] NONO A. (1994);samp. 4B;;MID-AFRICAN RIFT SYSTEM / CAMEROON LINE (CONTINENTAL SECTION) / ADAMAWA (ADAMAOUA) PLATEAU / TCHABAL NGANHA;;7.33;13.92;7.42;14.08;;;OUTCROP;;;SUBAERIAL;VOLCANIC ROCK;ANKARAMITE;PORPHYRITIC;MIDDLE FLOW UNIT;;;NEOGENE;;;;;MINERAL / COMPONENT (INCL. GROUNDMASS);RHÖNITE;;MICROCRYST;;;PRIMARY;;;;;;;;27.41;10.64;15.84;;;;;;22.25;;10.65;12.79;0.26;;;;;;0.03;EMP (EPMA);;;1.58;EMP (EPMA);;;;;;;;;;;;;;;;;;;;;;;;;;;;;;;;;;;;;;;;;;;;;;;;;;;;;;;;;;;;;;;;;;;;;;;;;;;;;;;;;;;;;;;;;;;;;;;;;;;;;;;;;;;;;;;;;;;;;;;;;;;;;;;;;;;;;;;;;;;;;;;;;;;;;;;;;;;;;;;;;;;;;;;;;;;;;;;;;;;;;;;;;;;;;;;;;;;;;;;;;;;;;;;;;;;;;;;;;;;;;;;;;;;;;;;;;;;;;;;;;;;;;;;;;;;;;;;;;;;;;;;;;;;;;;;;;;;;;;;;;;;;;;;;;;;;;;;;;
1994;[8028] NONO A. (1994);samp. 4B;;MID-AFRICAN RIFT SYSTEM / CAMEROON LINE (CONTINENTAL SECTION) / ADAMAWA (ADAMAOUA) PLATEAU / TCHABAL NGANHA;;7.33;13.92;7.42;14.08;;;OUTCROP;;;SUBAERIAL;VOLCANIC ROCK;ANKARAMITE;PORPHYRITIC;MIDDLE FLOW UNIT;;;NEOGENE;;;;;MINERAL / COMPONENT (INCL. GROUNDMASS);RHÖNITE;;MICROCRYST;;;PRIMARY;;;;;;;;28.41;10.14;17.41;;;;;;20.4;;9.23;10.92;0.14;;;;;;0.5;EMP (EPMA);;;3.08;EMP (EPMA);;;;;;;;;;;;;;;;;;;;;;;;;;;;;;;;;;;;;;;;;;;;;;;;;;;;;;;;;;;;;;;;;;;;;;;;;;;;;;;;;;;;;;;;;;;;;;;;;;;;;;;;;;;;;;;;;;;;;;;;;;;;;;;;;;;;;;;;;;;;;;;;;;;;;;;;;;;;;;;;;;;;;;;;;;;;;;;;;;;;;;;;;;;;;;;;;;;;;;;;;;;;;;;;;;;;;;;;;;;;;;;;;;;;;;;;;;;;;;;;;;;;;;;;;;;;;;;;;;;;;;;;;;;;;;;;;;;;;;;;;;;;;;;;;;;;;;;;;
1992;[8472] EHRENBERG K.-H. (1992);samp. 26137;165511;EUROPEAN OROGENIC BELT - CENOZOIC/QUATERNARY / GERMANY / RHÖN;EUBE, KUPPENRHÖN;50.5;9.93;50.5;9.93;;;OUTCROP;;;SUBAERIAL;VOLCANIC ROCK;ANKARAMITE;;;;;CENOZOIC;;;;;WHOLE ROCK;;;;;;;;;;;;;;42.51;3.16;12.88;;;;;7.39;;4.69;11.95;10.6;0.16;;;;;;0.56;XRF;;;2.55;XRF;;;0.53;;1.38;0.85;0.04;;0.02;;0;;;;;;;;;;;;;;;;;;;;;;;;;;;;;;;;;;;;;;;;;;;;;;;;328;ICPMS;;;360;ICPMS;;;;;;;;;;;175;ICPMS;;;;;62;ICPMS;;;87;ICPMS;;;18;ICPMS;;;;;;90;ICPMS;;;795;ICPMS;;;26;ICPMS;;;238;ICPMS;;;65;ICPMS;;;;;;;;;;;;588;ICPMS;;;47.1;ICPMS;;;94.2;ICPMS;;;;;;;48.8;ICPMS;;;12.8;ICPMS;;;4.1;ICPMS;;;7.5;;;;;5.7;;2.1;;1.7;ICPMS;;;;;;;;;;;;;;;;;;;;;;;;;5;ICPMS;;;;3;ICPMS;;;;0;ICPMS;;;;;;;;;;;;;;;;;;;;;;;;;;;;;;;;;;;;;;;;;;;;;;;;;;;;;;;;;;;;;;;;;;;;;;;;;;;;;;;;;;;;;;;;;;;;;;;;;;
1992;[8472] EHRENBERG K.-H. (1992);samp. 26138;165512;EUROPEAN OROGENIC BELT - CENOZOIC/QUATERNARY / GERMANY / RHÖN;EUBE, KUPPENRHÖN;50.5;9.93;50.5;9.93;;;OUTCROP;;;SUBAERIAL;VOLCANIC ROCK;ANKARAMITE;;;;;CENOZOIC;;;;;WHOLE ROCK;;;;;;;;;;;;;;42.39;2.91;12.35;;;;;6.15;;5.83;11.57;11.02;0.16;;;;;;0.6;XRF;;;2.2;XRF;;;0.49;;1.35;1.63;0.08;;0.03;;0;;;;;;;;;;;;;;;;;;;;;;;;;;;;;;;;;;;;;;;;;;;;;;;;315;ICPMS;;;374;ICPMS;;;;;;;;;;;216;ICPMS;;;;;55;ICPMS;;;86;ICPMS;;;18;ICPMS;;;;;;80;ICPMS;;;742;ICPMS;;;25;ICPMS;;;213;ICPMS;;;48;ICPMS;;;;;;;;;;;;549;ICPMS;;;38.4;ICPMS;;;78;ICPMS;;;;;;;41.1;ICPMS;;;10.9;ICPMS;;;3;ICPMS;;;6.3;;;;;5;;1.6;;1.5;ICPMS;;;;;;;;;;;;;;;;;;;;;;;;;0;ICPMS;;;;7;ICPMS;;;;0;ICPMS;;;;;;;;;;;;;;;;;;;;;;;;;;;;;;;;;;;;;;;;;;;;;;;;;;;;;;;;;;;;;;;;;;;;;;;;;;;;;;;;;;;;;;;;;;;;;;;;;;
1992;[8472] EHRENBERG K.-H. (1992);samp. 26138;165512;EUROPEAN OROGENIC BELT - CENOZOIC/QUATERNARY / GERMANY / RHÖN;EUBE, KUPPENRHÖN;50.5;9.93;50.5;9.93;;;OUTCROP;;;SUBAERIAL;VOLCANIC ROCK;ANKARAMITE;;;;;CENOZOIC;;;;;MINERAL / COMPONENT (INCL. GROUNDMASS);OLIVINE;;;;;PRIMARY;;;;;;;;38.59;0.04;0.08;0.04;;;;;15.43;;0.29;45;0.23;;;;;;0.01;EMP (EPMA);;;0.02;EMP (EPMA);;;;;;;;;;;;;;;;;;;;;;;;;;;;;;;;;;;;;;;;;;;;;;;;;;;;;;;;;;;;;;;;;;;;;;;;;;;;;;;;;;;;;;;;;;;;;;;;;;;;;;;;;;;;;;;;;;;;;;;;;;;;;;;;;;;;;;;;;;;;;;;;;;;;;;;;;;;;;;;;;;;;;;;;;;;;;;;;;;;;;;;;;;;;;;;;;;;;;;;;;;;;;;;;;;;;;;;;;;;;;;;;;;;;;;;;;;;;;;;;;;;;;;;;;;;;;;;;;;;;;;;;;;;;;;;;;;;;;;;;;;;;;;;;;;;;;;;;;
1992;[8472] EHRENBERG K.-H. (1992);samp. 26138;165512;EUROPEAN OROGENIC BELT - CENOZOIC/QUATERNARY / GERMANY / RHÖN;EUBE, KUPPENRHÖN;50.5;9.93;50.5;9.93;;;OUTCROP;;;SUBAERIAL;VOLCANIC ROCK;ANKARAMITE;;;;;CENOZOIC;;;;;MINERAL / COMPONENT (INCL. GROUNDMASS);CLINOPYROXENE;;;;;PRIMARY;;;;;;;;46.89;1.6;6.48;1.05;;;;;4.69;;22.28;15.09;0.07;;;;;;0.02;EMP (EPMA);;;0.68;EMP (EPMA);;;;;;;;;;;;;;;;;;;;;;;;;;;;;;;;;;;;;;;;;;;;;;;;;;;;;;;;;;;;;;;;;;;;;;;;;;;;;;;;;;;;;;;;;;;;;;;;;;;;;;;;;;;;;;;;;;;;;;;;;;;;;;;;;;;;;;;;;;;;;;;;;;;;;;;;;;;;;;;;;;;;;;;;;;;;;;;;;;;;;;;;;;;;;;;;;;;;;;;;;;;;;;;;;;;;;;;;;;;;;;;;;;;;;;;;;;;;;;;;;;;;;;;;;;;;;;;;;;;;;;;;;;;;;;;;;;;;;;;;;;;;;;;;;;;;;;;;;
1992;[8472] EHRENBERG K.-H. (1992);samp. 26138;165512;EUROPEAN OROGENIC BELT - CENOZOIC/QUATERNARY / GERMANY / RHÖN;EUBE, KUPPENRHÖN;50.5;9.93;50.5;9.93;;;OUTCROP;;;SUBAERIAL;VOLCANIC ROCK;ANKARAMITE;;;;;CENOZOIC;;;;;MINERAL / COMPONENT (INCL. GROUNDMASS);CLINOPYROXENE;;;;;PRIMARY;;;;;;;;40.96;5.11;10.03;0.01;;;;;8.05;;23.07;12.15;0.09;;;;;;0.01;EMP (EPMA);;;0.61;EMP (EPMA);;;;;;;;;;;;;;;;;;;;;;;;;;;;;;;;;;;;;;;;;;;;;;;;;;;;;;;;;;;;;;;;;;;;;;;;;;;;;;;;;;;;;;;;;;;;;;;;;;;;;;;;;;;;;;;;;;;;;;;;;;;;;;;;;;;;;;;;;;;;;;;;;;;;;;;;;;;;;;;;;;;;;;;;;;;;;;;;;;;;;;;;;;;;;;;;;;;;;;;;;;;;;;;;;;;;;;;;;;;;;;;;;;;;;;;;;;;;;;;;;;;;;;;;;;;;;;;;;;;;;;;;;;;;;;;;;;;;;;;;;;;;;;;;;;;;;;;;;
1994;[9384] EHRENBERG K.-H. (1994);samp. 26137;165511;EUROPEAN OROGENIC BELT - CENOZOIC/QUATERNARY / GERMANY / RHÖN;EUBE, KUPPENRHÖN;50.5;9.93;50.5;9.93;;;OUTCROP;;;SUBAERIAL;VOLCANIC ROCK;ANKARAMITE;;;;;;;;;;WHOLE ROCK;;;;;;;;;;;;;;42.51;3.16;12.88;;;;;7.39;;4.69;11.95;10.6;0.16;;;;;;0.56;NOT;;;2.55;NOT;;;0.53;;1.38;0.85;0.04;;;0.02;0;;;;;;;;;;;;;;;;;;;;;;;;;;;;;;;;;;;;;;;;;;;;;;;;328;NOT;;;360;NOT;;;;;;;;;;;175;NOT;;;;;62;NOT;;;87;NOT;;;18;NOT;;;;;;90;NOT;;;795;NOT;;;26;NOT;;;238;NOT;;;65;NOT;;;;;;;;;;;;588;NOT;;;47.1;ICPMS;;;94.2;ICPMS;;;;;;;48.75;ICPMS;;;12.78;ICPMS;;;4.07;ICPMS;;;7.51;;;;;5.73;;2.11;;1.74;ICPMS;;;;;;;;;;;;;;;;;;;;;;;;;5;NOT;;;;3;NOT;;;;0;NOT;;;;;;;;;;;;;;;;;;;;;;;;;;;;;;;;;;;;;;;;;;;;;;;;;;;;;;;;;;;;;;;;;;;;;;;;;;;;;;;;;;;;;;;;;;;;;;;;;;
1994;[9384] EHRENBERG K.-H. (1994);samp. 26138;165512;EUROPEAN OROGENIC BELT - CENOZOIC/QUATERNARY / GERMANY / RHÖN;EUBE, KUPPENRHÖN;50.5;9.93;50.5;9.93;;;OUTCROP;;;SUBAERIAL;VOLCANIC ROCK;ANKARAMITE;;;;;;;;;;WHOLE ROCK;;;;;;;;;;;;;;42.39;2.91;12.35;;;;;6.15;;5.83;11.57;11.02;0.16;;;;;;0.6;NOT;;;2.2;NOT;;;0.49;;1.35;1.63;0.08;;;0.03;0;;;;;;;;;;;;;;;;;;;;;;;;;;;;;;;;;;;;;;;;;;;;;;;;315;NOT;;;374;NOT;;;;;;;;;;;216;NOT;;;;;55;NOT;;;86;NOT;;;18;NOT;;;;;;80;NOT;;;742;NOT;;;25;NOT;;;213;NOT;;;48;NOT;;;;;;;;;;;;549;NOT;;;38.4;ICPMS;;;78;ICPMS;;;;;;;41.08;ICPMS;;;10.95;ICPMS;;;2.95;ICPMS;;;6.35;;;;;4.98;;1.65;;1.45;ICPMS;;;;;;;;;;;;;;;;;;;;;;;;;0;NOT;;;;7;NOT;;;;0;NOT;;;;;;;;;;;;;;;;;;;;;;;;;;;;;;;;;;;;;;;;;;;;;;;;;;;;;;;;;;;;;;;;;;;;;;;;;;;;;;;;;;;;;;;;;;;;;;;;;;
2000;[13171] TATSUMI Y. (2000);samp. R·305;;AUSTRAL-COOK ISLANDS / RAROTONGA;;-21.25;-159.75;-21.25;-159.75;;;OUTCROP;;;SUBAERIAL;VOLCANIC ROCK;ANKARAMITE;;;1000000;2000000;PLEISTOCENE;;;;;WHOLE ROCK;;;;;;;;;;;;;;44.04;3.58;14.31;;;;12.86;;;;10.9;7.41;0.17;;;;;;2.25;XRF;;;2.9;XRF;;;0.69;;;;;;;;;;;;;;;;;;;;;;;;;;;;;;;;;;;;;;;;;;;;;;;;;;;;;;;;;;;;;;;;;;;;;;;;94;XRF;;;;;;;;;;;;;;;;;;;;49;XRF;;;1017;XRF;;;23;XRF;;;307;XRF;;;63;XRF;;;;0.102;0.112;2.95;;;;;;692;XRF;;;;;;;;;;;;;;;;;;;;;;;;;;;;;;;;;;;;;;;;;;;;;;;;;;;;;;;;;0.168;3.147;1.91;;;6.3;XRF;;;;7.9;XRF;;;;;;;;;;;;;;;;;;;;;;;;;;;;;;;;;;;;;;;;;;;;;;;;;;;;;;;;;;;;;;;;;;;;;;;;;;;;;;;;;;;;;;;;;;;;;;;;;;;;;;;