Year;CITATION;SAMPLE NAME;UNIQUE_ID;LOCATION;LOCATION COMMENT;LATITUDE (MIN.);LONGITUDE (MIN.);LATITUDE (MAX.);LONGITUDE (MAX.);ELEVATION (MIN.);ELEVATION (MAX.);SAMPLING TECHNIQUE;DRILLING DEPTH (MIN.);DRILLING DEPTH (MAX.);LAND/SEA (SAMPLING);ROCK TYPE;ROCK NAME;ROCK TEXTURE;SAMPLE COMMENT;AGE (MIN.);AGE (MAX.);GEOLOGICAL AGE;GEOLOGICAL AGE PREFIX;ERUPTION DAY;ERUPTION MONTH;ERUPTION YEAR;ALTERATION;ALTERATION TYPE;TYPE OF MATERIAL;MINERAL / COMPONENT;SPOT (MINERAL);CRYSTAL;RIM / CORE (MINERAL GRAINS);PRIMARY/SECONDARY;INCLUSION TYPE;MINERAL (INCLUSION);HOSTMINERAL (INCLUSION);HEATING;SIO2(WT%);TIO2(WT%);ZRO2(WT%);HFO2(WT%);THO2(WT%);AL2O3(WT%);CR2O3(WT%);LA2O3(WT%);CE2O3(WT%);ND2O3(WT%);SM2O3(WT%);V2O3(WT%);NB2O5(WT%);FE2O3T(WT%);FE2O3(WT%);FEOT(WT%);FEO(WT%);FET(WT%);CAO(WT%);MGO(WT%);MNO(WT%);BAO(WT%);SRO(WT%);NIO(WT%);ZNO(WT%);RB2O(WT%);K2O(WT%);;;;NA2O(WT%);P2O5(WT%);AS2O5(WT%);H2O(WT%);H2OP(WT%);H2OM(WT%);CO2(WT%);C(WT%);F(WT%);CL(WT%);OH(WT%);SO3(WT%);S(WT%);LOI(WT%);TI(WT%);CA(WT%);K(WT%);LI(PPM);BE(PPM);B(PPM);F(PPM);P(PPM);S(PPM);CL(PPM);AR40(AT/G);;;;AR40(CCMSTP/G);;;;AR40(MOL/G);;;;AR40(PPB);K(PPM);SC(PPM);;;;TI(PPM);V(PPM);;;;CR(PPM);;;;CO(PPM);;;;NI(PPM);;;;CU(PPM);;;;ZN(PPM);;;;GA(PPM);;;;GE(PPM);AS(PPM);AS(PPB);SE(PPM);RB(PPM);;;;;;SR(PPM);;;;;;Y(PPM);;;;ZR(PPM);;;;NB(PPM);;;;MO(PPM);AG(PPM);CD(PPM);IN(PPM);SN(PPM);SB(PPM): altern. values or methods;;;;TE(PPM);CS(PPM): altern. values or methods;;;;BA(PPM): altern. values or methods;;;;LA(PPM): altern. values or methods;;;;CE(PPM): altern. values or methods;;;;PR(PPM);ND(PPM): altern. values or methods;;;;;;SM(PPM): altern. values or methods;;;;EU(PPM): altern. values or methods;;;;GD(PPM): altern. values or methods;;;;TB(PPM): altern. values or methods;;;;DY(PPM): altern. values or methods;;;;HO(PPM);ER(PPM): altern. values or methods;;;;TM(PPM);YB(PPM): altern. values or methods;;;;LU(PPM);HF(PPM);TA(PPM);W(PPM);RE(PPM);AU(PPM);HG(PPM);HG(PPB);TL(PPM);PB(PPM): altern. values or methods;;;;BI(PPM);PO210_ACT(DPM/G);RA226_ACT(DPM/G);TH(PPM): altern. values or methods;;;;U(PPM): altern. values or methods;;;;ND143_ND144;ND143_ND144_INI;EPSILON_ND;EPSILON_ND_INI;SM147_ND144;SR87_SR86;SR87_SR86_INI;EPSILON_SR_INI;RB87_SR86;PB206_PB204: altern. values or methods;;;;PB206_PB204_INI;PB207_PB204: altern. values or methods;;;;PB207_PB204_INI;PB207_PB206;PB208_PB204: altern. values or methods;;;;PB208_PB204_INI;PB208_PB206;HF176_HF177;LU176_HF177;AR38_AR36;AR40_AR36;AR40_AR36_INI;PB206_U238;PB207_U235;RA226_TH230_ACT;PA231_U235_ACT;TH230_TH232_ACT;TH230_U238_ACT;TH232_PB204;U234_U238_ACT;U235_PB204;U238_PB204;U238_TH232_ACT;D7LI(VS LSVEC);D13C(VS PDB);D18O(PER MIL);D18O(VS SMOW);D18O(VS VSMOW);D34S(VS VCDT);ALBITE(MOL%);ANORTHITE(MOL%);CA OLIVINE(MOL%);CHROMITE(MOL%);ENSTATITE(MOL%);FAYALITE(MOL%);FORSTERITE(MOL%);FERROSILITE(MOL%);HEMATITE(MOL%);HERCYNITE(MOL%);ILMENITE(MOL%);MAGNESIOFERRITE(MOL%);MONTICELLITE(MOL%);MAGNETITE(MOL%);ORTHOCLASE(MOL%);PICROCHROMITE(MOL%);SPINEL(MOL%);TEPHROITE(MOL%);ULVOSPINEL(MOL%);WOLLASTONITE(MOL%);AGE(KA): altern. values or methods;;;;;;AGE(MA): altern. values or methods;;;;;;AGE_PB207_U235(MA);AGE_PB206_U238(MA);
2001;[4594] PRESTVIK T.(2001)  [GeoReM [325] ];samp. OR98;;ICELAND / ICELAND / ÖRAEFAJÖKULL;;64.03;-16.68;64.03;-16.68;;;OUTCROP;;;SUBAERIAL;VOLCANIC ROCK;BENMOREITE;;;;;;;;;;;;WHOLE ROCK;;;;;;;;;;57.8;1.62;;;;13.73;;;;;;;;;2.1;;10.61;;5.45;1.56;0.32;;;;;;1.53;XRF;;;4.88;0.58;;;;;;;;;;;;0.21;;;;;;;;;;;;;;;;;;;;;;;;;22;XRF;;;;5;XRF;;;4;XRF;;;23;XRF;;;4;XRF;;;;;;;126;XRF;;;;;;;;;;;32;XRF;;;;;306;XRF;;;;;83;XRF;;;395;XRF;;;50.8;XRF;;;;;;;;;;;;;0.38;NOT;;;395;XRF;;;44.1;NOT;;;95;NOT;;;12.16;55.7;NOT;;;;;15.47;NOT;;;5.3;NOT;;;16;NOT;;;2.73;NOT;;;16.43;NOT;;;3.24;8.66;NOT;;;1.17;7.1;NOT;;;1.1;10.9;3.11;;;;;;;;;;;;;;4.1;NOT;;;1.21;NOT;;;0.512991;;;;;0.703762;;;;18.51;TIMS;;;;15.515;TIMS;;;;;38.445;TIMS;;;;;;;;;;;;;;;;;;;;;;;;5.5;;;;;;;;;;;;;;;;;;;;;;;;;;;;;;;;;;;;;
2000;[4825] HARDS V. L. (2000);samp. VH190;;ICELAND / ICELAND / SNAEFELLSJÖKULL;;64.807;-15.633;64.807;-15.633;;;OUTCROP;;;SUBAERIAL;VOLCANIC ROCK;BENMOREITE;;;;;;;;;;;;WHOLE ROCK;;;;;;;;;;59.09;1.04;;;;15.46;;;;;;;;9.21;;;;;4.22;1.24;0.27;;;;;;2.18;XRF;;;5.29;0.39;;;;;;;;;;;;-0.26;;;;;;;;;;;;;;;;;;;;;;;;;14;XRF;;;;10.3;XRF;;;3.9;XRF;;;16.4;XRF;;;2.1;XRF;;;7.8;XRF;;;126.2;XRF;;;28.4;XRF;;;;;;;47.8;XRF;;;;;413.3;XRF;;;;;64.2;XRF;;;401.6;XRF;;;51.7;XRF;;;;;;;;;;;;;;;;;579.6;XRF;;;59.7;ICPMS;;;120.1;ICPMS;;;;68;ICPMS;;;;;;;;;;;;;;;;;;;;;;;;;;;;;;;;;;;;;;;;;;;;;;;;;;;;;;;;;;;0.51301;;;;;0.703302;;;;18.486;TIMS;;;;15.474;TIMS;;;;;38.202;TIMS;;;;;;;;;;;;;;;;;;;;;;;;;5.1;;;;;;;;;;;;;;;;;;;;;;;;;;;;;;;;;;;;
1994;[8173] WEDEPOHL K. H.(1994)  [GeoReM [1217] ];samp. 26A;150346;EUROPEAN OROGENIC BELT - CENOZOIC/QUATERNARY / GERMANY / SIEBENGEBIRGE;LÖWENBURG;50.6651;7.2519;50.6651;7.2519;;;OUTCROP;;;SUBAERIAL;VOLCANIC ROCK;BENMOREITE;;;25000000;27000000;OLIGOCENE;;;;;;;WHOLE ROCK;;;;;;;;;;;;;;;;;;;;;;;;;;;;;;;;;;;;;;;;;;;;;;;;;;;;;;;;;;;;;;;;;;;;;;;;;;;;;;;;;;;;;;;;;;;;;;;;;;;;;;;;;;;;;;;;;;;123;TIMS_ID;;;;;1070;TIMS_ID;;;;;;;;;;;;;;;;;;;;;;;;;;;;;;;;;;;;;;;;;;;;54;TIMS_ID;;;;;8.7;TIMS_ID;;;;;;;;;;;;;;;;;;;;;;;;;;;;;;;;;;;;;;;;;;;;;;;;;;;;;0.512761;;;;;0.70438;;;;;;;;;;;;;;;;;;;;;;;;;;;;;;;;;;;;;;;;;;;;;;;;;;;;;;;;;;;;;;;;;;;;;;;;;;;;;
2007;[9925] PFÄNDER J. A.(2007)  [GeoReM [2953] ];samp. 57DS6;7539;PITCAIRN-GAMBIER CHAIN / VOLCANO 5 (PITCAIRN-GAMBIER CHAIN);;-25.25;-129.33;-25.25;-129.33;-2700;-2700;DREDGE;;;SUBAQUATIC;VOLCANIC ROCK;BENMOREITE;;;;;;;;;;;;WHOLE ROCK;;;;;;;;;;;;;;;;;;;;;;;;;;;;;;;;;;;;;;;;;;;;;;;;;;;;;;;;;;;;;;;;;;;;;;;;;;;;;;;;;;;;;;;;;;;;;;;;;;;;;;;;;;;;;;;;;;;;;;;;;;;;;;;;;;;538.2;ICPMS_ID;;;54.5;ICPMS;;;;;;;;;;;;;;;;;;;;;;;;;;;;;;;;;;;;;;;;;;;;;;;;;;;;;;;;;;;;;;;;;;0.551;12.59;3.47;;;;;;;;;;;;;;;;;;;;;;;;;;;;;;;;;;;;;;;;;;;;;;;;0.28269;0.0062;;;;;;;;;;;;;;;;;;;;;;;;;;;;;;;;;;;;;;;;;;;;;;;;;;;;;;;
1997;[9970] MÜLLER P. (1997);samp. EP 04-082;;ANTARCTICA / WEST ANTARCTIC RIFT SYSTEM / ROSS SEA RIFT / MOUNT MELBOURNE;EDMONSON POINT, VICTORIA LAND, MCMURDO VOLCANIC GROUP;-74.4;165;-74.4;165;;;OUTCROP;;;SUBAERIAL;VOLCANIC ROCK;BENMOREITE;;LAVA FLOW;;;CENOZOIC;;;;;;;MINERAL / COMPONENT (INCL. GROUNDMASS);GROUNDMASS;;;;PRIMARY;;;;;;;;;;;;;;;;;;;;;;;;;;;;;;;;;;;;;;;;;;;;;;;;;;;3.3;;;;;;;;;;;;6E-09;MS_ID;;;;;;;;;;;;;;;;;;;;;;;;;;;;;;;;;;;;;;;;;;;;;;;;;;;;;;;;;;;;;;;;;;;;;;;;;;;;;;;;;;;;;;;;;;;;;;;;;;;;;;;;;;;;;;;;;;;;;;;;;;;;;;;;;;;;;;;;;;;;;;;;;;;;;;;;;;;;;;;;;;;;;;;;;;;;;;;;;;;;;;;;;;;;;;;;;;;;;;;;;;;;;;;;;;;;;;;;;;;;;;;;;;;;;;;0.047;K-AR;;;;;;;
1989;[9983] WÖRNER G. (1989);samp. EP02-070;;ANTARCTICA / WEST ANTARCTIC RIFT SYSTEM / ROSS SEA RIFT / MOUNT MELBOURNE;EDMONSON POINT, VICTORIA LAND, MCMURDO VOLCANIC GROUP;-74.4;165;-74.4;165;;;OUTCROP;;;SUBAERIAL;VOLCANIC ROCK;BENMOREITE;;;;;NEOGENE;;;;;;;WHOLE ROCK;;;;;;;;;;59.5;0.76;;;;16.24;;;;;;;;;1.26;;6.48;;3.02;0.6;0.21;;;;;;4.16;XRF;;;5.81;0.2;;;0.25;;;;;;;;;;;;;;;;;;;;;;;;;;;;;;;;;;7.2;INAA;;;;4;XRF;;;16;XRF;;;3;XRF;2.6;INAA;4;XRF;;;10;XRF;;;153;XRF;;;;;;;;;;;105;XRF;;;;;371;XRF;;;;;54;XRF;;;556;XRF;;;134;XRF;;;;;;;;;;;;;;;;;1306;XRF;;;85.7;INAA;;;164;INAA;;;;68;INAA;;;;;13.2;INAA;;;4.21;INAA;;;;;;;1.74;INAA;;;;;;;;;;;;;4.54;INAA;;;0.59;12.1;8.9;;;;;;;;;;;;;;15.3;INAA;;;3.6;INAA;;;0.5129;;;;;0.70445;;;;;;;;;;;;;;;;;;;;;;;;;;;;;;;;;;;;;;;;;;;;;;;;;;;;;;;;;;;;;;;;;;;;;;;;;;;;;
1989;[9983] WÖRNER G. (1989);samp. EP03-076;;ANTARCTICA / WEST ANTARCTIC RIFT SYSTEM / ROSS SEA RIFT / MOUNT MELBOURNE;EDMONSON POINT, VICTORIA LAND, MCMURDO VOLCANIC GROUP;-74.4;165;-74.4;165;;;OUTCROP;;;SUBAERIAL;VOLCANIC ROCK;BENMOREITE;;;;;NEOGENE;;;;;;;WHOLE ROCK;;;;;;;;;;58.7;0.93;;;;16.4;;;;;;;;;1.86;;6.48;;3.44;0.78;0.22;;;;;;3.98;XRF;;;5.65;0.25;;;0.39;;;;;;;;;;;;;;;;;;;;;;;;;;;;;;;;;;;;;;;3;XRF;;;16;XRF;;;2;XRF;;;4;XRF;;;16;XRF;;;152;XRF;;;;;;;;;;;96;XRF;;;;;414;XRF;;;;;49;XRF;;;521;XRF;;;124;XRF;;;;;;;;;;;;;;;;;1284;XRF;;;;;;;;;;;;;;;;;;;;;;;;;;;;;;;;;;;;;;;;;;;;;;;;;;;;;;;;;;;;;;;;;;;;;;;;;;;;;;;;;;;;;;;;;;;;;;;;;;;;;;;;;;;;;;;;;;;;;;;;;;;;;;;;;;;;;;;;;;;;;;;;;;;;;;;;;;
1989;[9983] WÖRNER G. (1989);samp. EP05-083;;ANTARCTICA / WEST ANTARCTIC RIFT SYSTEM / ROSS SEA RIFT / MOUNT MELBOURNE;EDMONSON POINT, VICTORIA LAND, MCMURDO VOLCANIC GROUP;-74.4;165;-74.4;165;;;OUTCROP;;;SUBAERIAL;VOLCANIC ROCK;BENMOREITE;;;;;NEOGENE;;;;;;;WHOLE ROCK;;;;;;;;;;58.1;0.95;;;;16.23;;;;;;;;;2.7;;5.45;;3.43;0.77;0.2;;;;;;3.83;XRF;;;5.45;0.2;;;0.21;;;;;;;;;;;;;;;;;;;;;;;;;;;;;;;;;;;;;;;6;XRF;;;15;XRF;;;23;XRF;;;2;XRF;;;14;XRF;;;149;XRF;;;;;;;;;;;97;XRF;;;;;440;XRF;;;;;43;XRF;;;517;XRF;;;125;XRF;;;;;;;;;;;;;;;;;1198;XRF;;;;;;;;;;;;;;;;;;;;;;;;;;;;;;;;;;;;;;;;;;;;;;;;;;;;;;;;;;;;;;;;;;;;;;;;;;;;;;;;;;;;;;;;;;;;;;;;;;;;;;;;;;;;;;;;;;;;;;;;;;;;;;;;;;;;;;;;;;;;;;;;;;;;;;;;;;
1989;[9983] WÖRNER G. (1989);samp. EP08-086;;ANTARCTICA / WEST ANTARCTIC RIFT SYSTEM / ROSS SEA RIFT / MOUNT MELBOURNE;EDMONSON POINT, VICTORIA LAND, MCMURDO VOLCANIC GROUP;-74.4;165;-74.4;165;;;OUTCROP;;;SUBAERIAL;VOLCANIC ROCK;BENMOREITE;;;;;NEOGENE;;;;;;;WHOLE ROCK;;;;;;;;;;59;0.92;;;;16.39;;;;;;;;;2.15;;6.07;;3.33;0.75;0.21;;;;;;4.06;XRF;;;5.6;0.22;;;0.18;;;;;;;;;;;;;;;;;;;;;;;;;;;;;;;;;;;;;;;2;XRF;;;15;XRF;;;6;XRF;;;5;XRF;;;12;XRF;;;152;XRF;;;;;;;;;;;94;XRF;;;;;393;XRF;;;;;49;XRF;;;525;XRF;;;126;XRF;;;;;;;;;;;;;;;;;1367;XRF;;;;;;;;;;;;;;;;;;;;;;;;;;;;;;;;;;;;;;;;;;;;;;;;;;;;;;;;;;;;;;;;;;;;;;;;;;;;;;;;;;;;;;;;;;;;;;;;;;;;;;;;;;;;;;;;;;;;;;;;;;;;;;;;;;;;;;;;;;;;;;;;;;;;;;;;;;
1989;[9983] WÖRNER G. (1989);samp. EP09-087;;ANTARCTICA / WEST ANTARCTIC RIFT SYSTEM / ROSS SEA RIFT / MOUNT MELBOURNE;EDMONSON POINT, VICTORIA LAND, MCMURDO VOLCANIC GROUP;-74.4;165;-74.4;165;;;OUTCROP;;;SUBAERIAL;VOLCANIC ROCK;BENMOREITE;;;;;NEOGENE;;;;;;;WHOLE ROCK;;;;;;;;;;60.1;0.8;;;;16.51;;;;;;;;;1.72;;5.86;;3.08;0.58;0.21;;;;;;4.18;XRF;;;5.68;0.18;;;0.2;;;;;;;;;;;;;;;;;;;;;;;;;;;;;;;;;;;;;;;2;XRF;;;13;XRF;;;3;XRF;;;6;XRF;;;11;XRF;;;148;XRF;;;;;;;;;;;101;XRF;;;;;381;XRF;;;;;50;XRF;;;557;XRF;;;135;XRF;;;;;;;;;;;;;;;;;1248;XRF;;;;;;;;;;;;;;;;;;;;;;;;;;;;;;;;;;;;;;;;;;;;;;;;;;;;;;;;;;;;;;;;;;;;;;;;;;;;;;;;;;;;;;;;;;;;;;;;;;;;;;;;;;;;;;;;;;;;;;;;;;;;;;;;;;;;;;;;;;;;;;;;;;;;;;;;;;
1989;[9983] WÖRNER G. (1989);samp. EP10-089;;ANTARCTICA / WEST ANTARCTIC RIFT SYSTEM / ROSS SEA RIFT / MOUNT MELBOURNE;EDMONSON POINT, VICTORIA LAND, MCMURDO VOLCANIC GROUP;-74.4;165;-74.4;165;;;OUTCROP;;;SUBAERIAL;VOLCANIC ROCK;BENMOREITE;;;;;NEOGENE;;;;;;;WHOLE ROCK;;;;;;;;;;58.4;1.01;;;;16.47;;;;;;;;;2.15;;6.24;;3.62;0.85;0.21;;;;;;3.82;XRF;;;5.62;0.23;;;0.11;;;;;;;;;;;;;;;;;;;;;;;;;;;;;;;;;;;;;;;9;XRF;;;37;XRF;;;5;XRF;;;15;XRF;;;11;XRF;;;154;XRF;;;;;;;;;;;98;XRF;;;;;456;XRF;;;;;47;XRF;;;517;XRF;;;125;XRF;;;;;;;;;;;;;;;;;1128;XRF;;;;;;;;;;;;;;;;;;;;;;;;;;;;;;;;;;;;;;;;;;;;;;;;;;;;;;;;;;;;;;;;;;;;;;;;;;;;;;;;;;;;;;;;;;;;;;;;;;;;;;;;;;;;;;;;;;;;;;;;;;;;;;;;;;;;;;;;;;;;;;;;;;;;;;;;;;
1989;[9983] WÖRNER G. (1989);samp. EP12-092;;ANTARCTICA / WEST ANTARCTIC RIFT SYSTEM / ROSS SEA RIFT / MOUNT MELBOURNE;EDMONSON POINT, VICTORIA LAND, MCMURDO VOLCANIC GROUP;-74.4;165;-74.4;165;;;OUTCROP;;;SUBAERIAL;VOLCANIC ROCK;BENMOREITE;;;;;NEOGENE;;;;;;;WHOLE ROCK;;;;;;;;;;58.1;1;;;;16.4;;;;;;;;;2;;6.6;;3.67;0.84;0.22;;;;;;3.79;XRF;;;5.63;0.28;;;0.2;;;;;;;;;;;;;;;;;;;;;;;;;;;;;;;;;;;;;;;3;XRF;;;14;XRF;;;3;XRF;;;7;XRF;;;12;XRF;;;151;XRF;;;;;;;;;;;92;XRF;;;;;447;XRF;;;;;50;XRF;;;508;XRF;;;124;XRF;;;;;;;;;;;;;;;;;1174;XRF;;;;;;;;;;;;;;;;;;;;;;;;;;;;;;;;;;;;;;;;;;;;;;;;;;;;;;;;;;;;;;;;;;;;;;;;;;;;;;;;;;;;;;;;;;;;;;;;;;;;;;;;;;;;;;;;;;;;;;;;;;;;;;;;;;;;;;;;;;;;;;;;;;;;;;;;;;
1989;[9983] WÖRNER G. (1989);samp. EP13-094;;ANTARCTICA / WEST ANTARCTIC RIFT SYSTEM / ROSS SEA RIFT / MOUNT MELBOURNE;EDMONSON POINT, VICTORIA LAND, MCMURDO VOLCANIC GROUP;-74.4;165;-74.4;165;;;OUTCROP;;;SUBAERIAL;VOLCANIC ROCK;BENMOREITE;;;;;NEOGENE;;;;;;;WHOLE ROCK;;;;;;;;;;56.8;0.97;;;;16.09;;;;;;;;;1.37;;7.22;;3.58;0.86;0.22;;;;;;3.75;XRF;;;5.46;0.29;;;0.2;;;;;;;;;;;;;;;;;;;;;;;;;;;;;;;;;;;;;;;15;XRF;;;12;XRF;;;3;XRF;;;2;XRF;;;12;XRF;;;157;XRF;;;;;;;;;;;96;XRF;;;;;441;XRF;;;;;52;XRF;;;512;XRF;;;125;XRF;;;;;;;;;;;;;;;;;1139;XRF;;;;;;;;;;;;;;;;;;;;;;;;;;;;;;;;;;;;;;;;;;;;;;;;;;;;;;;;;;;;;;;;;;;;;;;;;;;;;;;;;;;;;;;;;;;;;;;;;;;;;;;;;;;;;;;;;;;;;;;;;;;;;;;;;;;;;;;;;;;;;;;;;;;;;;;;;;
2009;[12969] KOKFELT T. F.(2009)  [GeoReM [5081] ];samp. H94;;ICELAND / ICELAND / SNAEFELLSJÖKULL;EASTERN SNAEFELLSNES PENINSULA, HELLNAHRAUN;64.763;-23.656;64.763;-23.656;;;OUTCROP;;;SUBAERIAL;VOLCANIC ROCK;BENMOREITE;;GREY MASSIVE LAVA;0;8000;HOLOCENE;;;;;;;WHOLE ROCK;;;;;;;;;;60.53;1.19;;;;16.08;;;;;;;;7.94;;;;;4.05;1.48;0.21;;;;;;2.91;XRF;;;4.65;0.42;;0.28;;;0.03;;;;;;;;;;;;;;;;;;;;;;;;;;;;;;;;;;;;;46;XRF;;;0;XRF;;;15;XRF;;;0;XRF;;;;;;;121;XRF;;;;;;;;;;;72;XRF;67.5;ICPMS;;;406;XRF;392;ICPMS;;;58;XRF;55.9;ICPMS;563;XRF;535;ICPMS;94;XRF;98.9;ICPMS;;;;;;;;;;;0.749;ICPMS;;;1033;XRF;1047;ICPMS;73.1;ICPMS;;;151;ICPMS;;;17.8;67.6;ICPMS;;;;;12.5;ICPMS;;;3.86;ICPMS;;;11.5;ICPMS;;;1.71;ICPMS;;;10;ICPMS;;;2.01;5.33;ICPMS;;;0.849;5.71;ICPMS;;;0.866;12.3;5.3;;;;;;;4.32;ICPMS;;;;;;7.54;ICPMS;7.66;TIMS_ID;2.2;ICPMS;2.31;TIMS_ID;;;;;;;;;;;;;;;;;;;;;;;;;;;;;;;;;;1.02;1.45;1.072;1.174;;1.001;;;0.913;;;;;;;;;;;;;;;;;;;;;;;;;;;;;;;;;;;;;;;;;
2009;[13967] KÖHLER J.(2009)  [GeoReM [4895] ];samp. GD7;;GARDAR PROVINCE - GREENLAND / ILIMAUSSAQ-NARSARSUAQ-MOTZFELDT REGION / NARSAQ DIKE SWARM;;61;-45.7;61;-45.7;;;OUTCROP;;;SUBAERIAL;VOLCANIC ROCK;BENMOREITE;;DIKE;1160000000;1280000000;PROTEROZOIC;;;;;;;WHOLE ROCK;;;;;;;;;;57.48;0.77;;;;15.08;;;;;;;;10.11;;;;;2.66;0.44;0.25;;;;;;3.51;XRF;;;6.76;0.16;;;;;;;;;;;;1.4;;;;;;;3928;;39;159;;;;;;;;;;;;;;;8;XRF;;;;9;XRF;;;11;XRF;;;6;XRF;;;174;XRF;;;96;XRF;;;238;XRF;;;46;XRF;;;;26.7;;;86;XRF;;;;;158;XRF;;;;;184;XRF;;;1532;XRF;;;246;XRF;;;;;;;14.1;;;;;;21;XRF;;;207;XRF;;;223;XRF;;;446;XRF;;;45;184;XRF;;;;;30;XRF;;;3;XRF;;;27;XRF;;;;;;;53;XRF;;;;;;;;;14.2;XRF;;;2;51.1;24.4;;;;;;;59;XRF;;;;;;36.1;XRF;;;36.5;XRF;;;;;;;;;;;;;;;;;;;;;;;;;;;;;;;;;;;;;;;;;;;;;;;;;;;;;;;;;;;;;;;;;;;;;;;;;;;;;;;;;;;;;
2009;[13967] KÖHLER J.(2009)  [GeoReM [4895] ];samp. BB 11;;GARDAR PROVINCE - GREENLAND / IVIGTUT REGION / IVIGTUT DIKE SWARM;;61.25;-48.15;61.25;-48.15;;;OUTCROP;;;SUBAERIAL;VOLCANIC ROCK;BENMOREITE;;DIKE;1160000000;1280000000;PROTEROZOIC;;;;;;;WHOLE ROCK;;;;;;;;;;59.5;0.67;;;;16.4;;;;;;;;;;5.28;;;5.06;2.46;0.091;;;;;;2.18;XRF;;;4.75;0.239;;;;;;;;;;;;;;;;;;;3400;;100;;;;;;;;;;;;;;;;;;;;;;;;;70;XRF;;;;;;;;;;;18;XRF;;;87;XRF;;;;;;;;;;;126;XRF;;;;;423;XRF;;;;;26;XRF;;;370;XRF;;;96;XRF;;;;;;;0;;;;;;;;;;770;XRF;;;;;;;69;XRF;;;;;;;;;;;;;;;;;;;;;;;;;;;;;;;;;;;;;;;;;;;;;;;;;67;XRF;;;;;;;;;;;;;;;;;;;;;;;;;;;;;;;;;;;;;;;;;;;;;;;;;;;;;;;;;;;;;;;;;;;;;;;;;;;;;;;;;;;;;;;;;;;;;;;;
2012;[15825] LUSTRINO M. (2012);samp. 3MO 46;;ANATOLIA-IRAN BELT / TURKEY / EASTERN ANATOLIAN VOLCANIC BELT / KARACA(LI)DAG;;37;39;38;40.5;1061;1061;OUTCROP;;;SUBAERIAL;VOLCANIC ROCK;BENMOREITE;AMPH-BEARING LAVAS;KARACADAG;1000000;1900000;NEOGENE;;;;;;;WHOLE ROCK;;;;;;;;;;58.94;1.07;;;;18.17;;;;;;;;7.84;;;;;4.57;2.46;0.18;;;;;;3.25;XRF;;;3;0.52;;;;;;;;;;;;2.02;;;;;;;;;;;;;;;;;;;;;;;;;;;;;;47;ÎCPMS;;;40;ÎCPMS;;;16;ÎCPMS;;;50;ÎCPMS;;;30;ÎCPMS;;;;;;;28;ÎCPMS;;;;;;;33;ÎCPMS;;;;;643;ÎCPMS;;;;;21;ÎCPMS;;;303;ÎCPMS;;;53;ÎCPMS;;;;;;;;;;;;;;;;;506;ÎCPMS;;;41.2;ÎCPMS;;;81.8;ÎCPMS;;;8;28.8;ÎCPMS;;;;;6.4;ÎCPMS;;;2.3;ÎCPMS;;;5.4;ÎCPMS;;;0.8;ÎCPMS;;;4.3;ÎCPMS;;;0.8;2;ÎCPMS;;;0.27;1.6;ÎCPMS;;;0.23;6.7;3;;;;;;;7;ÎCPMS;;;;;;4.4;ÎCPMS;;;1.5;ÎCPMS;;;;;;;;;;;;;;;;;;;;;;;;;;;;;;;;;;;;;;;;;;;;;;;;;;;;;;;;;;;;;;;;;;;;;;;;;;;;;;;;;;;;;
2012;[16706] JUNG S.(2012)  [GeoReM [6968] ];samp. SG 5;;EUROPEAN OROGENIC BELT - CENOZOIC/QUATERNARY / GERMANY / SIEBENGEBIRGE;ÖLBERG;50.6832;7.2494;50.6832;7.2494;;;OUTCROP;;;SUBAERIAL;VOLCANIC ROCK;BENMOREITE;FINE GRAINED, FLOW TEXTURE;;;;OLIGOCENE;;;;;;;WHOLE ROCK;;;;;;;;;;57.92;1.41;;;;17.41;;;;;;;;5.3;;;;;3.75;1.83;0.1;;;;;;4.05;XRF;;;3.98;0.32;;;;;;;;;;;;3.42;;;;29.8;;;;;;;;;;;;;;;;;;;;;10.4;ICPMS;;;;141;ICPMS;;;18.9;ICPMS;;;12.5;ICPMS;;;12.9;ICPMS;;;19.1;ICPMS;;;122;ICPMS;;;23.8;ICPMS;;;;;;;132;ICPMS;;;;;536;ICPMS;;;;;29.9;ICPMS;;;424;ICPMS;;;74;ICPMS;;;;;;;;;;;;;2.28;ICPMS;;;833;ICPMS;;;61.1;ICPMS;;;116;ICPMS;;;12.8;45.7;ICPMS;;;;;8.43;ICPMS;;;2.29;ICPMS;;;6.9;ICPMS;;;0.9;ICPMS;;;5.49;ICPMS;;;1.03;2.94;ICPMS;;;0.43;2.51;ICPMS;;;0.4;8.4;4.2;;;;;;;20.97;ICPMS;;;;;;17.4;ICPMS;;;5.2;ICPMS;;;0.512654;;;;0.111;0.705845;;;0.713;19.38;TIMS;;;;15.68;TIMS;;;;;39.37;TIMS;;;;;;;;;;;;;;;;;;;;;;;;;;;;;;;;;;;;;;;;;;;;;;;;;;;;;;;;;;;;;