Year;CITATION;SAMPLE NAME;UNIQUE_ID;LOCATION;LOCATION COMMENT;LATITUDE (MIN.);LONGITUDE (MIN.);LATITUDE (MAX.);LONGITUDE (MAX.);ELEVATION (MIN.);ELEVATION (MAX.);SAMPLING TECHNIQUE;DRILLING DEPTH (MIN.);DRILLING DEPTH (MAX.);LAND/SEA (SAMPLING);ROCK TYPE;ROCK NAME;ROCK TEXTURE;SAMPLE COMMENT;AGE (MIN.);AGE (MAX.);GEOLOGICAL AGE;GEOLOGICAL AGE PREFIX;ERUPTION YEAR;ALTERATION;ALTERATION TYPE;TYPE OF MATERIAL;MINERAL / COMPONENT;SPOT (MINERAL);CRYSTAL;RIM / CORE (MINERAL GRAINS);PRIMARY/SECONDARY;SIO2(WT%);TIO2(WT%);AL2O3(WT%);CR2O3(WT%);V2O3(WT%);FE2O3T(WT%);FE2O3(WT%);FEOT(WT%);FEO(WT%);CAO(WT%);MGO(WT%);MNO(WT%);BAO(WT%);NIO(WT%);K2O(WT%);;;;;;;;NA2O(WT%);P2O5(WT%);H2O(WT%);H2OP(WT%);H2OM(WT%);CO2(WT%);F(WT%);LOI(WT%);K(WT%);;;;HE(CCMSTP/G);BE(PPM);F(PPM);;;;NE22(CCMSTP/G);S(PPM);CL(PPM);AR36(CCMSTP/G);AR40(MOL/G): altern. values or methods;;;;SC(PPM): altern. values or methods;;;;V(PPM): altern. values or methods;;;;CR(PPM): altern. values or methods;;;;MN(PPM);CO(PPM): altern. values or methods;;;;NI(PPM): altern. values or methods;;;;CU(PPM): altern. values or methods;;;;ZN(PPM): altern. values or methods;;;;GA(PPM);GE(PPM);AS(PPM);RB(PPM): altern. values or methods;;;;SR(PPM): altern. values or methods;;;;Y(PPM): altern. values or methods;;;;ZR(PPM): altern. values or methods;;;;NB(PPM);MO(PPM);CD(PPM);SN(PPM);SB(PPM);TE(PPM);CS(PPM);BA(PPM): altern. values or methods;;;;LA(PPM): altern. values or methods;;;;CE(PPM);PR(PPM);ND(PPM): altern. values or methods;;;;SM(PPM): altern. values or methods;;;;EU(PPM);GD(PPM);TB(PPM);DY(PPM);HO(PPM);ER(PPM);TM(PPM);YB(PPM);LU(PPM);HF(PPM);TA(PPM);W(PPM);RE(PPT): altern. values or methods;;;;AU(PPB);TL(PPM);PB(PPM);BI(PPM);TH(PPM);U(PPM);ND143_ND144;SM147_ND144;SR87_SR86;RB87_SR86;PB206_PB204;PB207_PB204;PB208_PB204;PB208_PB206;HE3_HE4(R/R(A));AR38_AR36;AR40_AR36;KR78_KR84;KR80_KR84;KR82_KR84;KR83_KR84;KR86_KR84;XE124_XE132;XE126_XE132;XE128_XE132;XE129_XE132;XE130_XE132;XE131_XE132;XE134_XE132;XE136_XE132;TH230_TH232_ACT;U238_TH232_ACT;D18O(PER MIL);D18O(VS SMOW);D18O(VS VSMOW);D34S(VS CDT);DD(VS VSMOW);ALBITE(MOL%);ANORTHITE(MOL%);FORSTERITE(MOL%);MAGNETITE(MOL%);ORTHOCLASE(MOL%);ULVOSPINEL(MOL%);AGE(KA);AGE(MA);
2010;[14135] VAN DER ZANDER I. (2010);samp. WD-65;272781;HAWAIIAN ISLANDS / OAHU / WAIANAE / SHIELD STAGE / KAMEILE^UNU MEMBER;MAUNA KUWALE;21.473;-158.119;21.473;-158.119;;;OUTCROP;;;SUBAERIAL;VOLCANIC ROCK;ICELANDITE;;"BASALTIC; DIKE/SILL";2800000;3900000;PLIOCENE;;;;;MINERAL / COMPONENT (INCL. GROUNDMASS);PLAGIOCLASE;;;RIM;PRIMARY;56.3;;26.7;;;;0.92;;;9.74;;;;;0.36;EMP (EPMA);;;;;;;5.86;;;;;;;;;;;;;;;;;;;;;;;;;;;;;;;;;;;;;;;;;;;;;;;;;;;;;;;;;;;;;;;;;;;;;;;;;;;;;;;;;;;;;;;;;;;;;;;;;;;;;;;;;;;;;;;;;;;;;;;;;;;;;;;;;;;;;;;;;;;;;;;;;;;;;;;;;46.9;;;;;;;
2010;[14135] VAN DER ZANDER I. (2010);samp. WD-65;272781;HAWAIIAN ISLANDS / OAHU / WAIANAE / SHIELD STAGE / KAMEILE^UNU MEMBER;MAUNA KUWALE;21.473;-158.119;21.473;-158.119;;;OUTCROP;;;SUBAERIAL;VOLCANIC ROCK;ICELANDITE;;"BASALTIC; DIKE/SILL";2800000;3900000;PLIOCENE;;;;;MINERAL / COMPONENT (INCL. GROUNDMASS);PLAGIOCLASE;;;CORE;PRIMARY;58.5;;26.1;;;;0.51;;;8.03;;;;;0.4;EMP (EPMA);;;;;;;6.89;;;;;;;;;;;;;;;;;;;;;;;;;;;;;;;;;;;;;;;;;;;;;;;;;;;;;;;;;;;;;;;;;;;;;;;;;;;;;;;;;;;;;;;;;;;;;;;;;;;;;;;;;;;;;;;;;;;;;;;;;;;;;;;;;;;;;;;;;;;;;;;;;;;;;;;;;38.3;;;;;;;
2010;[14135] VAN DER ZANDER I. (2010);samp. WD-65;272781;HAWAIIAN ISLANDS / OAHU / WAIANAE / SHIELD STAGE / KAMEILE^UNU MEMBER;MAUNA KUWALE;21.473;-158.119;21.473;-158.119;;;OUTCROP;;;SUBAERIAL;VOLCANIC ROCK;ICELANDITE;;"BASALTIC; DIKE/SILL";2800000;3900000;PLIOCENE;;;;;MINERAL / COMPONENT (INCL. GROUNDMASS);PLAGIOCLASE;;;RIM;PRIMARY;61.6;;24.1;;;;0.47;;;5.78;;;;;0.61;EMP (EPMA);;;;;;;8.03;;;;;;;;;;;;;;;;;;;;;;;;;;;;;;;;;;;;;;;;;;;;;;;;;;;;;;;;;;;;;;;;;;;;;;;;;;;;;;;;;;;;;;;;;;;;;;;;;;;;;;;;;;;;;;;;;;;;;;;;;;;;;;;;;;;;;;;;;;;;;;;;;;;;;;;;;27.5;;;;;;;
2010;[14135] VAN DER ZANDER I. (2010);samp. WD-65;272781;HAWAIIAN ISLANDS / OAHU / WAIANAE / SHIELD STAGE / KAMEILE^UNU MEMBER;MAUNA KUWALE;21.473;-158.119;21.473;-158.119;;;OUTCROP;;;SUBAERIAL;VOLCANIC ROCK;ICELANDITE;;"BASALTIC; DIKE/SILL";2800000;3900000;PLIOCENE;;;;;MINERAL / COMPONENT (INCL. GROUNDMASS);PLAGIOCLASE;;;RIM;PRIMARY;57;;26.7;;;;0.69;;;9.13;;;;;0.41;EMP (EPMA);;;;;;;6.15;;;;;;;;;;;;;;;;;;;;;;;;;;;;;;;;;;;;;;;;;;;;;;;;;;;;;;;;;;;;;;;;;;;;;;;;;;;;;;;;;;;;;;;;;;;;;;;;;;;;;;;;;;;;;;;;;;;;;;;;;;;;;;;;;;;;;;;;;;;;;;;;;;;;;;;;;44;;;;;;;
2010;[14135] VAN DER ZANDER I. (2010);samp. WD-320;272785;HAWAIIAN ISLANDS / OAHU / WAIANAE / SHIELD STAGE / KAMEILE^UNU MEMBER;MAUNA KUWALE;21.469;-158.119;21.469;-158.119;;;OUTCROP;;;SUBAERIAL;VOLCANIC ROCK;ICELANDITE;;DIKE/SILL;2800000;3900000;PLIOCENE;;;;;MINERAL / COMPONENT (INCL. GROUNDMASS);PLAGIOCLASE;;;CORE;PRIMARY;55.5;;27.5;;;;0.66;;;10.3;;;;;0.29;EMP (EPMA);;;;;;;5.5;;;;;;;;;;;;;;;;;;;;;;;;;;;;;;;;;;;;;;;;;;;;;;;;;;;;;;;;;;;;;;;;;;;;;;;;;;;;;;;;;;;;;;;;;;;;;;;;;;;;;;;;;;;;;;;;;;;;;;;;;;;;;;;;;;;;;;;;;;;;;;;;;;;;;;;;;50;;;;;;;
2010;[14135] VAN DER ZANDER I. (2010);samp. WD-320;272785;HAWAIIAN ISLANDS / OAHU / WAIANAE / SHIELD STAGE / KAMEILE^UNU MEMBER;MAUNA KUWALE;21.469;-158.119;21.469;-158.119;;;OUTCROP;;;SUBAERIAL;VOLCANIC ROCK;ICELANDITE;;DIKE/SILL;2800000;3900000;PLIOCENE;;;;;MINERAL / COMPONENT (INCL. GROUNDMASS);PLAGIOCLASE;;;CORE;PRIMARY;58;;26;;;;0.62;;;8.26;;;;;0.4;EMP (EPMA);;;;;;;6.69;;;;;;;;;;;;;;;;;;;;;;;;;;;;;;;;;;;;;;;;;;;;;;;;;;;;;;;;;;;;;;;;;;;;;;;;;;;;;;;;;;;;;;;;;;;;;;;;;;;;;;;;;;;;;;;;;;;;;;;;;;;;;;;;;;;;;;;;;;;;;;;;;;;;;;;;;39.6;;;;;;;
2010;[14135] VAN DER ZANDER I. (2010);samp. WD-320;272785;HAWAIIAN ISLANDS / OAHU / WAIANAE / SHIELD STAGE / KAMEILE^UNU MEMBER;MAUNA KUWALE;21.469;-158.119;21.469;-158.119;;;OUTCROP;;;SUBAERIAL;VOLCANIC ROCK;ICELANDITE;;DIKE/SILL;2800000;3900000;PLIOCENE;;;;;MINERAL / COMPONENT (INCL. GROUNDMASS);PLAGIOCLASE;;;RIM;PRIMARY;57.1;;26.4;;;;0.77;;;9.12;;;;;0.34;EMP (EPMA);;;;;;;6.24;;;;;;;;;;;;;;;;;;;;;;;;;;;;;;;;;;;;;;;;;;;;;;;;;;;;;;;;;;;;;;;;;;;;;;;;;;;;;;;;;;;;;;;;;;;;;;;;;;;;;;;;;;;;;;;;;;;;;;;;;;;;;;;;;;;;;;;;;;;;;;;;;;;;;;;;;43.8;;;;;;;
2010;[14135] VAN DER ZANDER I. (2010);samp. OW-109C;;HAWAIIAN ISLANDS / OAHU / WAIANAE / SHIELD STAGE / KAMEILE^UNU MEMBER;MAUNA KUWALE;21.463;-158.15;21.463;-158.15;;;OUTCROP;;;SUBAERIAL;VOLCANIC ROCK;ICELANDITE;;"BASALTIC; DIKE/SILL";2800000;3900000;PLIOCENE;;;;;MINERAL / COMPONENT (INCL. GROUNDMASS);PLAGIOCLASE;;;CORE;PRIMARY;51.4;;31.2;;;;0.76;;;14;;;;;0.21;EMP (EPMA);;;;;;;3.47;;;;;;;;;;;;;;;;;;;;;;;;;;;;;;;;;;;;;;;;;;;;;;;;;;;;;;;;;;;;;;;;;;;;;;;;;;;;;;;;;;;;;;;;;;;;;;;;;;;;;;;;;;;;;;;;;;;;;;;;;;;;;;;;;;;;;;;;;;;;;;;;;;;;;;;;;68.2;;;;;;;
2010;[14135] VAN DER ZANDER I. (2010);samp. OW-109C;;HAWAIIAN ISLANDS / OAHU / WAIANAE / SHIELD STAGE / KAMEILE^UNU MEMBER;MAUNA KUWALE;21.463;-158.15;21.463;-158.15;;;OUTCROP;;;SUBAERIAL;VOLCANIC ROCK;ICELANDITE;;"BASALTIC; DIKE/SILL";2800000;3900000;PLIOCENE;;;;;MINERAL / COMPONENT (INCL. GROUNDMASS);PLAGIOCLASE;;;RIM;PRIMARY;59.1;;25.4;;;;0.81;;;7.65;;;;;0.68;EMP (EPMA);;;;;;;7.01;;;;;;;;;;;;;;;;;;;;;;;;;;;;;;;;;;;;;;;;;;;;;;;;;;;;;;;;;;;;;;;;;;;;;;;;;;;;;;;;;;;;;;;;;;;;;;;;;;;;;;;;;;;;;;;;;;;;;;;;;;;;;;;;;;;;;;;;;;;;;;;;;;;;;;;;;36.2;;;;;;;
2010;[14135] VAN DER ZANDER I. (2010);samp. OW-109C;;HAWAIIAN ISLANDS / OAHU / WAIANAE / SHIELD STAGE / KAMEILE^UNU MEMBER;MAUNA KUWALE;21.463;-158.15;21.463;-158.15;;;OUTCROP;;;SUBAERIAL;VOLCANIC ROCK;ICELANDITE;;"BASALTIC; DIKE/SILL";2800000;3900000;PLIOCENE;;;;;MINERAL / COMPONENT (INCL. GROUNDMASS);PLAGIOCLASE;;;CORE;PRIMARY;51.9;;30.7;;;;0.67;;;13.8;;;;;0.18;EMP (EPMA);;;;;;;3.69;;;;;;;;;;;;;;;;;;;;;;;;;;;;;;;;;;;;;;;;;;;;;;;;;;;;;;;;;;;;;;;;;;;;;;;;;;;;;;;;;;;;;;;;;;;;;;;;;;;;;;;;;;;;;;;;;;;;;;;;;;;;;;;;;;;;;;;;;;;;;;;;;;;;;;;;;66.7;;;;;;;
2010;[14135] VAN DER ZANDER I. (2010);samp. OW-109C;;HAWAIIAN ISLANDS / OAHU / WAIANAE / SHIELD STAGE / KAMEILE^UNU MEMBER;MAUNA KUWALE;21.463;-158.15;21.463;-158.15;;;OUTCROP;;;SUBAERIAL;VOLCANIC ROCK;ICELANDITE;;"BASALTIC; DIKE/SILL";2800000;3900000;PLIOCENE;;;;;MINERAL / COMPONENT (INCL. GROUNDMASS);PLAGIOCLASE;;;RIM;PRIMARY;53.5;;29.6;;;;0.71;;;12.6;;;;;0.27;EMP (EPMA);;;;;;;4.41;;;;;;;;;;;;;;;;;;;;;;;;;;;;;;;;;;;;;;;;;;;;;;;;;;;;;;;;;;;;;;;;;;;;;;;;;;;;;;;;;;;;;;;;;;;;;;;;;;;;;;;;;;;;;;;;;;;;;;;;;;;;;;;;;;;;;;;;;;;;;;;;;;;;;;;;;60.3;;;;;;;
2010;[14135] VAN DER ZANDER I. (2010);samp. OW-4;;HAWAIIAN ISLANDS / OAHU / WAIANAE / SHIELD STAGE / KAMEILE^UNU MEMBER;MAUNA KUWALE;21.466;-158.129;21.466;-158.129;;;OUTCROP;;;SUBAERIAL;VOLCANIC ROCK;ICELANDITE;;"BASALTIC; LAVA";2800000;3900000;PLIOCENE;;;;;MINERAL / COMPONENT (INCL. GROUNDMASS);PYROXENE;;;CORE;PRIMARY;52.2;0.94;1.86;0;;;;9.41;;19.1;15.9;0.29;;;;;;;;;;;0.37;;;;;;;;;;;;;;;;;;;;;;;;;;;;;;;;;;;;;;;;;;;;;;;;;;;;;;;;;;;;;;;;;;;;;;;;;;;;;;;;;;;;;;;;;;;;;;;;;;;;;;;;;;;;;;;;;;;;;;;;;;;;;;;;;;;;;;;;;;;;;;;;;;;;;;;;;;;;;;;;
2010;[14135] VAN DER ZANDER I. (2010);samp. 1.1.42;272775;HAWAIIAN ISLANDS / OAHU / WAIANAE / SHIELD STAGE / KAMEILE^UNU MEMBER;VICINITY OF KOLEKOLE PASS;21.462;-158.15;21.462;-158.15;;;OUTCROP;;;SUBAERIAL;VOLCANIC ROCK;ICELANDITE;;DIKE/SILL;2800000;3900000;PLIOCENE;;;;;MINERAL / COMPONENT (INCL. GROUNDMASS);PYROXENE;;;CORE;PRIMARY;53.5;0.59;1.74;0.01;;;;17;;1.85;25.9;0.6;;;;;;;;;;;0.03;;;;;;;;;;;;;;;;;;;;;;;;;;;;;;;;;;;;;;;;;;;;;;;;;;;;;;;;;;;;;;;;;;;;;;;;;;;;;;;;;;;;;;;;;;;;;;;;;;;;;;;;;;;;;;;;;;;;;;;;;;;;;;;;;;;;;;;;;;;;;;;;;;;;;;;;;;;;;;;;
2010;[14135] VAN DER ZANDER I. (2010);samp. 1.1.42;272775;HAWAIIAN ISLANDS / OAHU / WAIANAE / SHIELD STAGE / KAMEILE^UNU MEMBER;VICINITY OF KOLEKOLE PASS;21.462;-158.15;21.462;-158.15;;;OUTCROP;;;SUBAERIAL;VOLCANIC ROCK;ICELANDITE;;DIKE/SILL;2800000;3900000;PLIOCENE;;;;;MINERAL / COMPONENT (INCL. GROUNDMASS);PYROXENE;;;RIM;PRIMARY;51.6;1.12;3.54;0.02;;;;9.84;;18.2;15.6;0.42;;;;;;;;;;;0.43;;;;;;;;;;;;;;;;;;;;;;;;;;;;;;;;;;;;;;;;;;;;;;;;;;;;;;;;;;;;;;;;;;;;;;;;;;;;;;;;;;;;;;;;;;;;;;;;;;;;;;;;;;;;;;;;;;;;;;;;;;;;;;;;;;;;;;;;;;;;;;;;;;;;;;;;;;;;;;;;
2010;[14135] VAN DER ZANDER I. (2010);samp. WD-21;;HAWAIIAN ISLANDS / OAHU / WAIANAE / SHIELD STAGE / KAMEILE^UNU MEMBER;MAUNA KUWALE;21.468;-158.147;21.468;-158.147;;;OUTCROP;;;SUBAERIAL;VOLCANIC ROCK;ICELANDITE;;"BASALTIC; DIKE/SILL";2800000;3900000;PLIOCENE;;;;;MINERAL / COMPONENT (INCL. GROUNDMASS);PYROXENE;;;CORE;PRIMARY;50.6;1.47;3.51;0.19;;;;9.67;;16.9;16.8;0.24;;;;;;;;;;;0.3;;;;;;;;;;;;;;;;;;;;;;;;;;;;;;;;;;;;;;;;;;;;;;;;;;;;;;;;;;;;;;;;;;;;;;;;;;;;;;;;;;;;;;;;;;;;;;;;;;;;;;;;;;;;;;;;;;;;;;;;;;;;;;;;;;;;;;;;;;;;;;;;;;;;;;;;;;;;;;;;
2010;[14135] VAN DER ZANDER I. (2010);samp. WD-21;;HAWAIIAN ISLANDS / OAHU / WAIANAE / SHIELD STAGE / KAMEILE^UNU MEMBER;MAUNA KUWALE;21.468;-158.147;21.468;-158.147;;;OUTCROP;;;SUBAERIAL;VOLCANIC ROCK;ICELANDITE;;"BASALTIC; DIKE/SILL";2800000;3900000;PLIOCENE;;;;;MINERAL / COMPONENT (INCL. GROUNDMASS);PYROXENE;;;CORE;PRIMARY;52.4;0.92;2.32;0.29;;;;7.53;;19.2;17.1;0.16;;;;;;;;;;;0.29;;;;;;;;;;;;;;;;;;;;;;;;;;;;;;;;;;;;;;;;;;;;;;;;;;;;;;;;;;;;;;;;;;;;;;;;;;;;;;;;;;;;;;;;;;;;;;;;;;;;;;;;;;;;;;;;;;;;;;;;;;;;;;;;;;;;;;;;;;;;;;;;;;;;;;;;;;;;;;;;
2010;[14135] VAN DER ZANDER I. (2010);samp. OW-85;272761;HAWAIIAN ISLANDS / OAHU / WAIANAE / SHIELD STAGE / KAMEILE^UNU MEMBER;MAUNA KUWALE;21.462;-158.154;21.462;-158.154;;;OUTCROP;;;SUBAERIAL;VOLCANIC ROCK;ICELANDITE;;LAVA;2800000;3900000;PLIOCENE;;;;;MINERAL / COMPONENT (INCL. GROUNDMASS);PYROXENE;;;RIM;PRIMARY;52.6;0.67;1.63;0.01;;;;14.1;;10.4;19.8;0.67;;;;;;;;;;;0.22;;;;;;;;;;;;;;;;;;;;;;;;;;;;;;;;;;;;;;;;;;;;;;;;;;;;;;;;;;;;;;;;;;;;;;;;;;;;;;;;;;;;;;;;;;;;;;;;;;;;;;;;;;;;;;;;;;;;;;;;;;;;;;;;;;;;;;;;;;;;;;;;;;;;;;;;;;;;;;;;
2010;[14135] VAN DER ZANDER I. (2010);samp. OW-85;272761;HAWAIIAN ISLANDS / OAHU / WAIANAE / SHIELD STAGE / KAMEILE^UNU MEMBER;MAUNA KUWALE;21.462;-158.154;21.462;-158.154;;;OUTCROP;;;SUBAERIAL;VOLCANIC ROCK;ICELANDITE;;LAVA;2800000;3900000;PLIOCENE;;;;;MINERAL / COMPONENT (INCL. GROUNDMASS);PYROXENE;;;CORE;PRIMARY;52.5;0.51;1.15;0.01;;;;20.9;;2.09;22.2;0.95;;;;;;;;;;;0.03;;;;;;;;;;;;;;;;;;;;;;;;;;;;;;;;;;;;;;;;;;;;;;;;;;;;;;;;;;;;;;;;;;;;;;;;;;;;;;;;;;;;;;;;;;;;;;;;;;;;;;;;;;;;;;;;;;;;;;;;;;;;;;;;;;;;;;;;;;;;;;;;;;;;;;;;;;;;;;;;
2010;[14135] VAN DER ZANDER I. (2010);samp. WD-320;272785;HAWAIIAN ISLANDS / OAHU / WAIANAE / SHIELD STAGE / KAMEILE^UNU MEMBER;MAUNA KUWALE;21.469;-158.119;21.469;-158.119;;;OUTCROP;;;SUBAERIAL;VOLCANIC ROCK;ICELANDITE;;DIKE/SILL;2800000;3900000;PLIOCENE;;;;;MINERAL / COMPONENT (INCL. GROUNDMASS);PYROXENE;;;CORE;PRIMARY;51.2;1.06;2.77;0;;;;8.51;;20;15.3;0.24;;;;;;;;;;;0.43;;;;;;;;;;;;;;;;;;;;;;;;;;;;;;;;;;;;;;;;;;;;;;;;;;;;;;;;;;;;;;;;;;;;;;;;;;;;;;;;;;;;;;;;;;;;;;;;;;;;;;;;;;;;;;;;;;;;;;;;;;;;;;;;;;;;;;;;;;;;;;;;;;;;;;;;;;;;;;;;
2010;[14135] VAN DER ZANDER I. (2010);samp. OW-109C;;HAWAIIAN ISLANDS / OAHU / WAIANAE / SHIELD STAGE / KAMEILE^UNU MEMBER;MAUNA KUWALE;21.463;-158.15;21.463;-158.15;;;OUTCROP;;;SUBAERIAL;VOLCANIC ROCK;ICELANDITE;;"BASALTIC; DIKE/SILL";2800000;3900000;PLIOCENE;;;;;MINERAL / COMPONENT (INCL. GROUNDMASS);PYROXENE;;;CORE;PRIMARY;52.6;0.92;2.04;0.17;;;;8.53;;17.3;18;0.22;;;;;;;;;;;0.29;;;;;;;;;;;;;;;;;;;;;;;;;;;;;;;;;;;;;;;;;;;;;;;;;;;;;;;;;;;;;;;;;;;;;;;;;;;;;;;;;;;;;;;;;;;;;;;;;;;;;;;;;;;;;;;;;;;;;;;;;;;;;;;;;;;;;;;;;;;;;;;;;;;;;;;;;;;;;;;;
2010;[14135] VAN DER ZANDER I. (2010);samp. OW-109C;;HAWAIIAN ISLANDS / OAHU / WAIANAE / SHIELD STAGE / KAMEILE^UNU MEMBER;MAUNA KUWALE;21.463;-158.15;21.463;-158.15;;;OUTCROP;;;SUBAERIAL;VOLCANIC ROCK;ICELANDITE;;"BASALTIC; DIKE/SILL";2800000;3900000;PLIOCENE;;;;;MINERAL / COMPONENT (INCL. GROUNDMASS);PYROXENE;;;CORE;PRIMARY;50.2;1.52;3.89;0.26;;;;8.52;;19.1;15.6;0.22;;;;;;;;;;;0.31;;;;;;;;;;;;;;;;;;;;;;;;;;;;;;;;;;;;;;;;;;;;;;;;;;;;;;;;;;;;;;;;;;;;;;;;;;;;;;;;;;;;;;;;;;;;;;;;;;;;;;;;;;;;;;;;;;;;;;;;;;;;;;;;;;;;;;;;;;;;;;;;;;;;;;;;;;;;;;;;
2010;[14135] VAN DER ZANDER I. (2010);samp. 1.1.42;272775;HAWAIIAN ISLANDS / OAHU / WAIANAE / SHIELD STAGE / KAMEILE^UNU MEMBER;VICINITY OF KOLEKOLE PASS;21.462;-158.15;21.462;-158.15;;;OUTCROP;;;SUBAERIAL;VOLCANIC ROCK;ICELANDITE;;DIKE/SILL;2800000;3900000;PLIOCENE;;;;;MINERAL / COMPONENT (INCL. GROUNDMASS);GLASS;;GROUNDMASS;;PRIMARY;57.9;2.08;15;;;;;7.6;;5.36;2.67;0.15;;;2.09;EMP (EPMA);;;;;;;4.95;0.84;;;;;;;;;;;;;;;;;;;;;;;;;;;;;;;;;;;;;;;;;;;;;;;;;;;;;;;;;;;;;;;;;;;;;;;;;;;;;;;;;;;;;;;;;;;;;;;;;;;;;;;;;;;;;;;;;;;;;;;;;;;;;;;;;;;;;;;;;;;;;;;;;;;;;;;;;;;;;;;
2010;[14135] VAN DER ZANDER I. (2010);samp. 1.1.42;272775;HAWAIIAN ISLANDS / OAHU / WAIANAE / SHIELD STAGE / KAMEILE^UNU MEMBER;VICINITY OF KOLEKOLE PASS;21.462;-158.15;21.462;-158.15;;;OUTCROP;;;SUBAERIAL;VOLCANIC ROCK;ICELANDITE;;DIKE/SILL;2800000;3900000;PLIOCENE;;;;;MINERAL / COMPONENT (INCL. GROUNDMASS);GLASS;;GROUNDMASS;;PRIMARY;58.6;2.04;15.2;;;;;7.86;;5.5;2.69;0.16;;;2.22;EMP (EPMA);;;;;;;5;0.88;;;;;;;;;;;;;;;;;;;;;;;;;;;;;;;;;;;;;;;;;;;;;;;;;;;;;;;;;;;;;;;;;;;;;;;;;;;;;;;;;;;;;;;;;;;;;;;;;;;;;;;;;;;;;;;;;;;;;;;;;;;;;;;;;;;;;;;;;;;;;;;;;;;;;;;;;;;;;;;
2010;[14135] VAN DER ZANDER I. (2010);samp. WD-320;272785;HAWAIIAN ISLANDS / OAHU / WAIANAE / SHIELD STAGE / KAMEILE^UNU MEMBER;MAUNA KUWALE;21.469;-158.119;21.469;-158.119;;;OUTCROP;;;SUBAERIAL;VOLCANIC ROCK;ICELANDITE;;DIKE/SILL;2800000;3900000;PLIOCENE;;;;;MINERAL / COMPONENT (INCL. GROUNDMASS);GLASS;;GROUNDMASS;;PRIMARY;59.5;1.86;17.9;;;;;4.77;;4.63;1.17;0.11;;;1.91;EMP (EPMA);;;;;;;6.37;0.9;;;;;;;;;;;;;;;;;;;;;;;;;;;;;;;;;;;;;;;;;;;;;;;;;;;;;;;;;;;;;;;;;;;;;;;;;;;;;;;;;;;;;;;;;;;;;;;;;;;;;;;;;;;;;;;;;;;;;;;;;;;;;;;;;;;;;;;;;;;;;;;;;;;;;;;;;;;;;;;
2010;[14135] VAN DER ZANDER I. (2010);samp. WD-320;272785;HAWAIIAN ISLANDS / OAHU / WAIANAE / SHIELD STAGE / KAMEILE^UNU MEMBER;MAUNA KUWALE;21.469;-158.119;21.469;-158.119;;;OUTCROP;;;SUBAERIAL;VOLCANIC ROCK;ICELANDITE;;DIKE/SILL;2800000;3900000;PLIOCENE;;;;;MINERAL / COMPONENT (INCL. GROUNDMASS);GLASS;;GROUNDMASS;;PRIMARY;59;1.79;18.2;;;;;5.3;;5.31;1.44;0.15;;;1.58;EMP (EPMA);;;;;;;6.34;0.74;;;;;;;;;;;;;;;;;;;;;;;;;;;;;;;;;;;;;;;;;;;;;;;;;;;;;;;;;;;;;;;;;;;;;;;;;;;;;;;;;;;;;;;;;;;;;;;;;;;;;;;;;;;;;;;;;;;;;;;;;;;;;;;;;;;;;;;;;;;;;;;;;;;;;;;;;;;;;;;
2010;[14135] VAN DER ZANDER I. (2010);samp. OW-109C;;HAWAIIAN ISLANDS / OAHU / WAIANAE / SHIELD STAGE / KAMEILE^UNU MEMBER;MAUNA KUWALE;21.463;-158.15;21.463;-158.15;;;OUTCROP;;;SUBAERIAL;VOLCANIC ROCK;ICELANDITE;;"BASALTIC; DIKE/SILL";2800000;3900000;PLIOCENE;;;;;MINERAL / COMPONENT (INCL. GROUNDMASS);GLASS;;GROUNDMASS;;PRIMARY;69.9;1.09;13.4;;;;;2.17;;0.9;0.32;0.03;;;6.41;EMP (EPMA);;;;;;;3.37;0.23;;;;;;;;;;;;;;;;;;;;;;;;;;;;;;;;;;;;;;;;;;;;;;;;;;;;;;;;;;;;;;;;;;;;;;;;;;;;;;;;;;;;;;;;;;;;;;;;;;;;;;;;;;;;;;;;;;;;;;;;;;;;;;;;;;;;;;;;;;;;;;;;;;;;;;;;;;;;;;;
2010;[14135] VAN DER ZANDER I. (2010);samp. OW-109C;;HAWAIIAN ISLANDS / OAHU / WAIANAE / SHIELD STAGE / KAMEILE^UNU MEMBER;MAUNA KUWALE;21.463;-158.15;21.463;-158.15;;;OUTCROP;;;SUBAERIAL;VOLCANIC ROCK;ICELANDITE;;"BASALTIC; DIKE/SILL";2800000;3900000;PLIOCENE;;;;;MINERAL / COMPONENT (INCL. GROUNDMASS);GLASS;;GROUNDMASS;;PRIMARY;70.7;0.97;13.3;;;;;1.9;;0.99;0.28;0.02;;;6.25;EMP (EPMA);;;;;;;3.33;0.41;;;;;;;;;;;;;;;;;;;;;;;;;;;;;;;;;;;;;;;;;;;;;;;;;;;;;;;;;;;;;;;;;;;;;;;;;;;;;;;;;;;;;;;;;;;;;;;;;;;;;;;;;;;;;;;;;;;;;;;;;;;;;;;;;;;;;;;;;;;;;;;;;;;;;;;;;;;;;;;
2010;[14135] VAN DER ZANDER I. (2010);samp. OW-109C;;HAWAIIAN ISLANDS / OAHU / WAIANAE / SHIELD STAGE / KAMEILE^UNU MEMBER;MAUNA KUWALE;21.463;-158.15;21.463;-158.15;;;OUTCROP;;;SUBAERIAL;VOLCANIC ROCK;ICELANDITE;;"BASALTIC; DIKE/SILL";2800000;3900000;PLIOCENE;;;;;MINERAL / COMPONENT (INCL. GROUNDMASS);GLASS;;GROUNDMASS;;PRIMARY;69.2;1.36;13.1;;;;;2.52;;1.01;0.31;0.02;;;6.57;EMP (EPMA);;;;;;;3.24;0.29;;;;;;;;;;;;;;;;;;;;;;;;;;;;;;;;;;;;;;;;;;;;;;;;;;;;;;;;;;;;;;;;;;;;;;;;;;;;;;;;;;;;;;;;;;;;;;;;;;;;;;;;;;;;;;;;;;;;;;;;;;;;;;;;;;;;;;;;;;;;;;;;;;;;;;;;;;;;;;;
2010;[14135] VAN DER ZANDER I. (2010);samp. OW-109C;;HAWAIIAN ISLANDS / OAHU / WAIANAE / SHIELD STAGE / KAMEILE^UNU MEMBER;MAUNA KUWALE;21.463;-158.15;21.463;-158.15;;;OUTCROP;;;SUBAERIAL;VOLCANIC ROCK;ICELANDITE;;"BASALTIC; DIKE/SILL";2800000;3900000;PLIOCENE;;;;;MINERAL / COMPONENT (INCL. GROUNDMASS);GLASS;;GROUNDMASS;;PRIMARY;68.8;1.16;13.6;;;;;2.57;;0.91;0.55;0.03;;;6.42;EMP (EPMA);;;;;;;3.53;0.26;;;;;;;;;;;;;;;;;;;;;;;;;;;;;;;;;;;;;;;;;;;;;;;;;;;;;;;;;;;;;;;;;;;;;;;;;;;;;;;;;;;;;;;;;;;;;;;;;;;;;;;;;;;;;;;;;;;;;;;;;;;;;;;;;;;;;;;;;;;;;;;;;;;;;;;;;;;;;;;
1988;[14165] ZBINDEN E. A. (1988);samp. OW18G;272770;HAWAIIAN ISLANDS / OAHU / WAIANAE / SHIELD STAGE / KAMEILE^UNU MEMBER;MAUNA KUWALE;21.469;-158.146;21.469;-158.146;;;OUTCROP;;;SUBAERIAL;VOLCANIC ROCK;ICELANDITE;;;;;PLIOCENE;;;;;WHOLE ROCK;;;;;;60.78;1.22;14.17;;;;0.72;;4.79;5.55;4.86;0.12;;;2.89;XRF;;;;;;;3.57;0.25;;1.13;0.42;0.11;;;;;;;;;;;;;;;;;;;;;;;;;;;;;;;;;;;;;;;;;;;;;;;;;;;;;;;;;;;;;;;;;;;;;;;;;;;;;;;;;;;;;;;;;;;;;;;;;;;;;;;;;;;;;;;;;;;;;;;;;;;;;;;;;;;;;;;;;;;;;;;;;;;;;;;;;;;
1988;[14165] ZBINDEN E. A. (1988);samp. OW26;272758;HAWAIIAN ISLANDS / OAHU / WAIANAE / SHIELD STAGE / KAMEILE^UNU MEMBER;MAUNA KUWALE;21.467;-158.151;21.467;-158.151;;;OUTCROP;;;SUBAERIAL;VOLCANIC ROCK;ICELANDITE;;;;;PLIOCENE;;;;;WHOLE ROCK;;;;;;59.69;1.72;15.58;;;;0.79;;5.23;3.96;2.24;0.06;;;2.74;XRF;;;;;;;4.74;0.53;;0.9;1.6;0.04;;;;;;;;;;;;;;;;;;;;;;;;;;;;;;;;;;;;;;;;;;;;;;;;;;;;;;;;;;;;;;;;;;;;;;;;;;;;;;;;;;;;;;;;;;;;;;;;;;;;;;;;;;;;;;;;;;;;;;;;;;;;;;;;;;;;;;;;;;;;;;;;;;;;;;;;;;;
1988;[14165] ZBINDEN E. A. (1988);samp. OW32B;272772;HAWAIIAN ISLANDS / OAHU / WAIANAE / SHIELD STAGE / KAMEILE^UNU MEMBER;MAUNA KUWALE;21.467;-158.155;21.467;-158.155;;;OUTCROP;;;SUBAERIAL;VOLCANIC ROCK;ICELANDITE;;;;;PLIOCENE;;;;;WHOLE ROCK;;;;;;60.43;1.23;14.38;;;;0.77;;5.13;5.62;5.1;0.11;;;3.01;XRF;;;;;;;3.7;0.26;;0.87;0.28;0.07;;;;;;;;;;;;;;;;;;;;;;;;;;;;;;;;;;;;;;;;;;;;;;;;;;;;;;;;;;;;;;;;;;;;;;;;;;;;;;;;;;;;;;;;;;;;;;;;;;;;;;;;;;;;;;;;;;;;;;;;;;;;;;;;;;;;;;;;;;;;;;;;;;;;;;;;;;;