Year;CITATION;SAMPLE NAME;UNIQUE_ID;LOCATION;LOCATION COMMENT;LATITUDE (MIN.);LONGITUDE (MIN.);LATITUDE (MAX.);LONGITUDE (MAX.);ELEVATION (MIN.);ELEVATION (MAX.);SAMPLING TECHNIQUE;DRILLING DEPTH (MIN.);DRILLING DEPTH (MAX.);LAND/SEA (SAMPLING);ROCK TYPE;ROCK NAME;ROCK TEXTURE;SAMPLE COMMENT;AGE (MIN.);AGE (MAX.);GEOLOGICAL AGE;GEOLOGICAL AGE PREFIX;ERUPTION YEAR;ALTERATION;ALTERATION TYPE;TYPE OF MATERIAL;MINERAL / COMPONENT;SPOT (MINERAL);CRYSTAL;RIM / CORE (MINERAL GRAINS);PRIMARY/SECONDARY;SIO2(WT%);TIO2(WT%);AL2O3(WT%);CR2O3(WT%);V2O3(WT%);FE2O3T(WT%);FE2O3(WT%);FEOT(WT%);FEO(WT%);CAO(WT%);MGO(WT%);MNO(WT%);BAO(WT%);NIO(WT%);K2O(WT%);;;;;;;;NA2O(WT%);P2O5(WT%);H2O(WT%);H2OP(WT%);H2OM(WT%);CO2(WT%);F(WT%);LOI(WT%);K(WT%);;;;HE(CCMSTP/G);BE(PPM);F(PPM);;;;NE22(CCMSTP/G);S(PPM);CL(PPM);AR36(CCMSTP/G);AR40(MOL/G): altern. values or methods;;;;SC(PPM): altern. values or methods;;;;V(PPM): altern. values or methods;;;;CR(PPM): altern. values or methods;;;;MN(PPM);CO(PPM): altern. values or methods;;;;NI(PPM): altern. values or methods;;;;CU(PPM): altern. values or methods;;;;ZN(PPM): altern. values or methods;;;;GA(PPM);GE(PPM);AS(PPM);RB(PPM): altern. values or methods;;;;SR(PPM): altern. values or methods;;;;Y(PPM): altern. values or methods;;;;ZR(PPM): altern. values or methods;;;;NB(PPM);MO(PPM);CD(PPM);SN(PPM);SB(PPM);TE(PPM);CS(PPM);BA(PPM): altern. values or methods;;;;LA(PPM): altern. values or methods;;;;CE(PPM);PR(PPM);ND(PPM): altern. values or methods;;;;SM(PPM): altern. values or methods;;;;EU(PPM);GD(PPM);TB(PPM);DY(PPM);HO(PPM);ER(PPM);TM(PPM);YB(PPM);LU(PPM);HF(PPM);TA(PPM);W(PPM);RE(PPT): altern. values or methods;;;;AU(PPB);TL(PPM);PB(PPM);BI(PPM);TH(PPM);U(PPM);ND143_ND144;SM147_ND144;SR87_SR86;RB87_SR86;PB206_PB204;PB207_PB204;PB208_PB204;PB208_PB206;HE3_HE4(R/R(A));AR38_AR36;AR40_AR36;KR78_KR84;KR80_KR84;KR82_KR84;KR83_KR84;KR86_KR84;XE124_XE132;XE126_XE132;XE128_XE132;XE129_XE132;XE130_XE132;XE131_XE132;XE134_XE132;XE136_XE132;TH230_TH232_ACT;U238_TH232_ACT;D18O(PER MIL);D18O(VS SMOW);D18O(VS VSMOW);D34S(VS CDT);DD(VS VSMOW);ALBITE(MOL%);ANORTHITE(MOL%);FORSTERITE(MOL%);MAGNETITE(MOL%);ORTHOCLASE(MOL%);ULVOSPINEL(MOL%);AGE(KA);AGE(MA);
2010;[14135] VAN DER ZANDER I. (2010);samp. OW-18G;272770;HAWAIIAN ISLANDS / OAHU / WAIANAE / SHIELD STAGE / KAMEILE^UNU MEMBER;MAUNA KUWALE;21.469;-158.146;21.469;-158.146;;;OUTCROP;;;SUBAERIAL;VOLCANIC ROCK;ICELANDITE;;LAVA;2800000;3900000;PLIOCENE;;;;;WHOLE ROCK;;;;;;62.11;1.25;14.48;;;;;5.55;;5.67;4.97;0.12;;;2.95;XRF;;;;;;;3.65;0.26;;;;;;1.55;;;;;;;;;;;;;;;;;;;13;XRF;;;129;XRF;;;159;XRF;;;;38;XRF;;;179;XRF;;;36;XRF;;;172;XRF;;;;;;90;XRF;;;270;XRF;;;57;XRF;;;133;XRF;;;50;;;;;;;100;XRF;;;;;;;;;;;;;;;;;;;;;;;;;;;;;;;;;;;;;;;;;;;;;;;;;;;;;;;;;;;;;;;;;;;;;;;;;;;;;;
2010;[14135] VAN DER ZANDER I. (2010);samp. OW-46;272771;HAWAIIAN ISLANDS / OAHU / WAIANAE / SHIELD STAGE / KAMEILE^UNU MEMBER;MAUNA KUWALE;21.46;-158.11;21.46;-158.11;;;OUTCROP;;;SUBAERIAL;VOLCANIC ROCK;ICELANDITE;;LAVA;2800000;3900000;PLIOCENE;;;;;WHOLE ROCK;;;;;;60.1;1.56;15.18;;;;;6.72;;5.9;5.02;0.12;;;2.4;XRF;;;;;;;3.7;0.34;;;;;;1.79;;;;;;;;;;;;;;;;;;;12;XRF;;;145;XRF;;;116;XRF;;;;32;XRF;;;139;XRF;;;39;XRF;;;148;XRF;;;;;;70;XRF;;;339;XRF;;;78;XRF;;;157;XRF;;;46;;;;;;;119;XRF;;;;;;;;;;;;;;;;;;;;;;;;;;;;;;;;;;;;;;;;;;;;;;;;;;;;;;;;;;;;;;;;;;;;;;;;;;;;;;
2010;[14135] VAN DER ZANDER I. (2010);samp. OW-32B;272772;HAWAIIAN ISLANDS / OAHU / WAIANAE / SHIELD STAGE / KAMEILE^UNU MEMBER;MAUNA KUWALE;21.467;-158.155;21.467;-158.155;;;OUTCROP;;;SUBAERIAL;VOLCANIC ROCK;ICELANDITE;;LAVA;2800000;3900000;PLIOCENE;;;;;WHOLE ROCK;;;;;;61.52;1.25;14.64;;;;;5.93;;5.72;5.19;0.11;;;3.06;XRF;;;;;;;3.77;0.26;;;;;;1.15;;;;;;;;;;;;;;;;;;;13;XRF;;;127;XRF;;;178;XRF;;;;40;XRF;;;179;XRF;;;36;XRF;;;167;XRF;;;;;;86;XRF;;;266;XRF;;;56;XRF;;;132;XRF;;;50;;;;;;;96;XRF;;;;;;;;;;;;;;;;;;;;;;;;;;;;;;;;;;;;;;;;;;;;;;;;;;;;;;;;;;;;;;;;;;;;;;;;;;;;;;
2010;[14135] VAN DER ZANDER I. (2010);samp. OW-51;;HAWAIIAN ISLANDS / OAHU / WAIANAE / SHIELD STAGE / KAMEILE^UNU MEMBER;MAUNA KUWALE;21.432;-158.115;21.432;-158.115;;;OUTCROP;;;SUBAERIAL;VOLCANIC ROCK;ICELANDITE;;LAVA;2800000;3900000;PLIOCENE;;;;;WHOLE ROCK;;;;;;58.28;1.35;14.99;;;;;6.26;;6.33;3.99;0.11;;;1.99;XRF;;;;;;;3.34;0.22;;;;;;1.77;;;;;;;;;;;;;;;;;;;14;XRF;;;137;XRF;;;122;XRF;;;;36;XRF;;;125;XRF;;;;;;;169;XRF;;;;;;72;XRF;;;261;XRF;;;63;XRF;;;135;XRF;;;49;;;;;;;149;XRF;;;;;;;;;;;;;;;;;;;;;;;;;;;;;;;;;;;;;;;;;;;;;;;;;;;;;;;;;;;;;;;;;;;;;;;;;;;;;;
2010;[14135] VAN DER ZANDER I. (2010);samp. OW-215;;HAWAIIAN ISLANDS / OAHU / WAIANAE / SHIELD STAGE / KAMEILE^UNU MEMBER;MAUNA KUWALE;21.455;-158.15;21.455;-158.15;;;OUTCROP;;;SUBAERIAL;VOLCANIC ROCK;ICELANDITE;;LAVA;2800000;3900000;PLIOCENE;;;;;WHOLE ROCK;;;;;;60.73;1.35;14.91;;;;;6.4;;5.54;5.38;0.1;;;2.46;XRF;;;;;;;3.27;0.16;;;;;;1.27;;;;;;;;;;;;;;;;;;;16;XRF;;;145;XRF;;;187;XRF;;;;46;XRF;;;171;XRF;;;;;;;169;XRF;;;;;;72;XRF;;;261;XRF;;;63;XRF;;;135;XRF;;;49;;;;;;;93;XRF;;;;;;;;;;;;;;;;;;;;;;;;;;;;;;;;;;;;;;;;;;;;;;;;;;;;;;;;;;;;;;;;;;;;;;;;;;;;;;
2010;[14135] VAN DER ZANDER I. (2010);samp. 1.1.42;272775;HAWAIIAN ISLANDS / OAHU / WAIANAE / SHIELD STAGE / KAMEILE^UNU MEMBER;VICINITY OF KOLEKOLE PASS;21.462;-158.15;21.462;-158.15;;;OUTCROP;;;SUBAERIAL;VOLCANIC ROCK;ICELANDITE;;DIKE/SILL;2800000;3900000;PLIOCENE;;;;;WHOLE ROCK;;;;;;58.25;2.02;15.77;;;;;7.81;;5.43;2.75;0.16;;;2.11;XRF;;;;;;;4.69;0.84;;;;;;0.84;;;;;;;;;;;;;;;;;;;;;;;;;;;;;;;;17;ICPMS;;;;;;;;;;;;;;;;;;34;XRF;49;ICPMS;482;XRF;611;ICPMS;60;XRF;71;ICPMS;454;XRF;;;;;;;;;0.3;459;XRF;518;ICPMS;32;ICPMS;;;119;16;45;ICPMS;;;11.1;ICPMS;;;3.2;16;1.58;8.6;1.5;4.1;0.57;3.2;0.47;9;2.1;;;;;;;;;;2.8;0.98;;;;;;;;;;;;;;;;;;;;;;;;;;;;;;;;;;;;;;;;
2010;[14135] VAN DER ZANDER I. (2010);samp. OW-109C;;HAWAIIAN ISLANDS / OAHU / WAIANAE / SHIELD STAGE / KAMEILE^UNU MEMBER;MAUNA KUWALE;21.463;-158.15;21.463;-158.15;;;OUTCROP;;;SUBAERIAL;VOLCANIC ROCK;ICELANDITE;;"BASALTIC; DIKE/SILL";2800000;3900000;PLIOCENE;;;;;WHOLE ROCK;;;;;;53.38;2.74;15.74;;;;;9.06;;9.29;4.96;0.15;;;1.22;XRF;;;;;;;3.51;0.52;;;;;;0.85;;;;;;;;;;;;;;;;;;;20;XRF;;;261;XRF;;;132;XRF;;;;36;XRF;;;107;XRF;;;97;XRF;;;99;XRF;;;;;;40;XRF;;;490;XRF;;;39;XRF;;;206;XRF;;;28;;;;;;;151;XRF;;;;;;;;;;;;;;;;;;;;;;;;;;;;;;;;;;;;;;;;;;;;;;;;;;;;;;;;;;;;;;;;;;;;;;;;;;;;;;
2010;[14135] VAN DER ZANDER I. (2010);samp. WD-304;272777;HAWAIIAN ISLANDS / OAHU / WAIANAE / SHIELD STAGE / KAMEILE^UNU MEMBER;MAUNA KUWALE;21.408;-158.138;21.408;-158.138;;;OUTCROP;;;SUBAERIAL;VOLCANIC ROCK;ICELANDITE;;"BASALTIC; DIKE/SILL";2800000;3900000;PLIOCENE;;;;;WHOLE ROCK;;;;;;51.82;2.6;13.95;;;;;11.02;;10.86;7.01;0.18;;;0.36;XRF;;;;;;;2.37;0.32;;;;;;1.02;;;;;;;;;;;;;;;;;;;31;XRF;;;305;XRF;;;271;XRF;;;;49;XRF;;;107;XRF;;;123;XRF;;;103;XRF;;;;;;5.7;XRF;;;364;XRF;;;30;XRF;;;156;XRF;;;12;;;;;;;68;XRF;;;;;;;;;;;;;;;;;;;;;;;;;;;;;;;;;;;;;;;;;;;;;;;;;;;;;;;;;;;;;;;;;;;;;;;;;;;;;;
2010;[14135] VAN DER ZANDER I. (2010);samp. OW-214B;;HAWAIIAN ISLANDS / OAHU / WAIANAE / SHIELD STAGE / KAMEILE^UNU MEMBER;MAUNA KUWALE;21.455;-158.112;21.455;-158.112;;;OUTCROP;;;SUBAERIAL;VOLCANIC ROCK;ICELANDITE;;"BASALTIC; DIKE/SILL";2800000;3900000;PLIOCENE;;;;;WHOLE ROCK;;;;;;53.55;3.18;14.16;;;;;11.14;;9.24;4.72;0.15;;;0.94;XRF;;;;;;;2.69;0.44;;;;;;1.12;;;;;;;;;;;;;;;;;;;32;XRF;;;378;XRF;;;78;XRF;;;;53;XRF;;;60;XRF;;;;;;;141;XRF;;;;;;25;XRF;;;483;XRF;;;35;XRF;;;208;XRF;;;20;;;;;;;163;XRF;;;;;;;;;;;;;;;;;;;;;;;;;;;;;;;;;;;;;;;;;;;;;;;;;;;;;;;;;;;;;;;;;;;;;;;;;;;;;;
2010;[14135] VAN DER ZANDER I. (2010);samp. WD-21;;HAWAIIAN ISLANDS / OAHU / WAIANAE / SHIELD STAGE / KAMEILE^UNU MEMBER;MAUNA KUWALE;21.468;-158.147;21.468;-158.147;;;OUTCROP;;;SUBAERIAL;VOLCANIC ROCK;ICELANDITE;;"BASALTIC; DIKE/SILL";2800000;3900000;PLIOCENE;;;;;WHOLE ROCK;;;;;;52.7;3.7;14.17;;;;;9.51;;9.99;4.87;0.14;;;0.87;XRF;;;;;;;2.92;0.57;;;;;;2.11;;;;;;;;;;;;;;;;;;;29;XRF;;;359;XRF;;;59;XRF;;;;52;XRF;;;79;XRF;;;115;XRF;;;144;XRF;;;;;;19;XRF;;;553;XRF;;;41;XRF;;;244;XRF;;;19;;;;;;;211;XRF;;;;;;;;;;;;;;;;;;;;;;;;;;;;;;;;;;;;;;;;;;;;;;;;;;;;;;;;;;;;;;;;;;;;;;;;;;;;;;
2010;[14135] VAN DER ZANDER I. (2010);samp. WD-50;272780;HAWAIIAN ISLANDS / OAHU / WAIANAE / SHIELD STAGE / KAMEILE^UNU MEMBER;MAUNA KUWALE;21.47;-158.146;21.47;-158.146;;;OUTCROP;;;SUBAERIAL;VOLCANIC ROCK;ICELANDITE;;"BASALTIC; DIKE/SILL";2800000;3900000;PLIOCENE;;;;;WHOLE ROCK;;;;;;52.51;3.26;13.92;;;;;10.39;;9.51;5.32;0.17;;;0.84;XRF;;;;;;;2.74;0.49;;;;;;1.48;;;;;;;;;;;;;;;;;;;29;XRF;;;341;XRF;;;34;XRF;;;;52;XRF;;;55;XRF;;;73;XRF;;;145;XRF;;;;;;13;XRF;;;516;XRF;;;42;XRF;;;218;XRF;;;20;;;;;;;229;XRF;;;;;;;;;;;;;;;;;;;;;;;;;;;;;;;;;;;;;;;;;;;;;;;;;;;;;;;;;;;;;;;;;;;;;;;;;;;;;;
2010;[14135] VAN DER ZANDER I. (2010);samp. WD-65;272781;HAWAIIAN ISLANDS / OAHU / WAIANAE / SHIELD STAGE / KAMEILE^UNU MEMBER;MAUNA KUWALE;21.473;-158.119;21.473;-158.119;;;OUTCROP;;;SUBAERIAL;VOLCANIC ROCK;ICELANDITE;;"BASALTIC; DIKE/SILL";2800000;3900000;PLIOCENE;;;;;WHOLE ROCK;;;;;;52.31;3.77;13.71;;;;;11.92;;8.21;3.57;0.2;;;1.36;XRF;;;;;;;3.72;0.81;;;;;;1.93;;;;;;;;;;;;;;;;;;;23;XRF;;;302;XRF;;;5;XRF;;;;54;XRF;;;23;XRF;;;13;XRF;;;161;XRF;;;;;;26;XRF;;;529;XRF;;;50;XRF;;;352;XRF;;;32;;;;;;;346;XRF;;;;;;;;;;;;;;;;;;;;;;;;;;;;;;;;;;;;;;;;;;;;;;;;;;;;;;;;;;;;;;;;;;;;;;;;;;;;;;
2010;[14135] VAN DER ZANDER I. (2010);samp. WD-335;272782;HAWAIIAN ISLANDS / OAHU / WAIANAE / SHIELD STAGE / KAMEILE^UNU MEMBER;MAUNA KUWALE;21.525;-158.227;21.525;-158.227;;;OUTCROP;;;SUBAERIAL;VOLCANIC ROCK;ICELANDITE;;"BASALTIC; DIKE/SILL";2800000;3900000;PLIOCENE;;;;;WHOLE ROCK;;;;;;52.66;2.55;13.81;;;;;10.77;;10.45;6.87;0.17;;;0.5;XRF;;;;;;;2.51;0.36;;;;;;1.86;;;;;;;;;;;;;;;;;;;28;XRF;;;288;XRF;;;260;XRF;;;;49;XRF;;;111;XRF;;;93;XRF;;;100;XRF;;;;;;8;XRF;;;429;XRF;;;38;XRF;;;161;XRF;;;13;;;;;;;120;XRF;;;;;;;;;;;;;;;;;;;;;;;;;;;;;;;;;;;;;;;;;;;;;;;;;;;;;;;;;;;;;;;;;;;;;;;;;;;;;;
2010;[14135] VAN DER ZANDER I. (2010);samp. WD-342;272783;HAWAIIAN ISLANDS / OAHU / WAIANAE / SHIELD STAGE / KAMEILE^UNU MEMBER;MAUNA KUWALE;21.524;-158.764;21.524;-158.764;;;OUTCROP;;;SUBAERIAL;VOLCANIC ROCK;ICELANDITE;;"BASALTIC; DIKE/SILL";2800000;3900000;PLIOCENE;;;;;WHOLE ROCK;;;;;;52.5;2.57;13.84;;;;;11.44;;10.11;6.13;0.18;;;0.39;XRF;;;;;;;2.81;0.32;;;;;;1.37;;;;;;;;;;;;;;;;;;;28;XRF;;;285;XRF;;;95;XRF;;;;44;XRF;;;73;XRF;;;122;XRF;;;97;XRF;;;;;;5.7;XRF;;;388;XRF;;;38;XRF;;;159;XRF;;;11;;;;;;;92;XRF;;;;;;;;;;;;;;;;;;;;;;;;;;;;;;;;;;;;;;;;;;;;;;;;;;;;;;;;;;;;;;;;;;;;;;;;;;;;;;
2010;[14135] VAN DER ZANDER I. (2010);samp. OW-83B;;HAWAIIAN ISLANDS / OAHU / WAIANAE / SHIELD STAGE / KAMEILE^UNU MEMBER;MAUNA KUWALE;21.457;-158.157;21.457;-158.157;;;OUTCROP;;;SUBAERIAL;VOLCANIC ROCK;ICELANDITE;;"BASALTIC; DIKE/SILL";2800000;3900000;PLIOCENE;;;;;WHOLE ROCK;;;;;;52.73;2.56;15.07;;;;;10.34;;9.98;5.28;0.14;;;0.8;XRF;;;;;;;2.14;0.36;;;;;;;;;;;;;;;;;;;;;;;;;29;XRF;;;296;XRF;;;247;XRF;;;;63;XRF;;;98;XRF;;;88;XRF;;;111;XRF;;;;;;12;XRF;;;485;XRF;;;41;XRF;;;178;XRF;;;53;;;;;;;167;XRF;;;;;;;;;;;;;;;;;;;;;;;;;;;;;;;;;;;;;;;;;;;;;;;;;;;;;;;;;;;;;;;;;;;;;;;;;;;;;;
2010;[14135] VAN DER ZANDER I. (2010);samp. WD-320;272785;HAWAIIAN ISLANDS / OAHU / WAIANAE / SHIELD STAGE / KAMEILE^UNU MEMBER;MAUNA KUWALE;21.469;-158.119;21.469;-158.119;;;OUTCROP;;;SUBAERIAL;VOLCANIC ROCK;ICELANDITE;;DIKE/SILL;2800000;3900000;PLIOCENE;;;;;WHOLE ROCK;;;;;;56.77;2.48;14.41;;;;;9.11;;6.35;3.18;0.13;;;2.01;XRF;;;;;;;4.44;0.77;;;;;;1.5;;;;;;;;;;;;;;;;;;;16;XRF;;;257;XRF;;;6;XRF;;;;49;XRF;18;ICPMS;30;XRF;;;17;XRF;;;157;XRF;;;;;;35;XRF;37;ICPMS;553;XRF;546;ICPMS;66;XRF;65;ICPMS;507;XRF;;;44;;;;;;0.3;389;XRF;422;ICPMS;36;ICPMS;;;103;14;53;ICPMS;;;13.1;ICPMS;;;3.9;14.8;1.9;10.3;1.8;4.8;0.67;3.8;0.54;9.6;2.3;;;;;;;;3.84;;2.8;0.98;0.512926;;0.70374;;18.067;15.454;37.777;0.95;;;;;;;;;;;;;;;;;;;;;;;;;;;;;;;;
2010;[14135] VAN DER ZANDER I. (2010);samp. WD-354;272786;HAWAIIAN ISLANDS / OAHU / WAIANAE / SHIELD STAGE / KAMEILE^UNU MEMBER;MAUNA KUWALE;21.48;-158.121;21.48;-158.121;;;OUTCROP;;;SUBAERIAL;VOLCANIC ROCK;ICELANDITE;;"BASALTIC; DIKE/SILL";2800000;3900000;PLIOCENE;;;;;WHOLE ROCK;;;;;;53.31;3.91;13.43;;;;;9.82;;9.08;4.91;0.17;;;1;XRF;;;;;;;3.06;0.79;;;;;;1.89;;;;;;;;;;;;;;;;;;;29;XRF;;;356;XRF;;;36;XRF;;;;50;XRF;;;49;XRF;;;81;XRF;;;158;XRF;;;;;;17;XRF;;;568;XRF;;;56;XRF;;;315;XRF;;;26;;;;;;;453;XRF;;;;;;;;;;;;;;;;;;;;;;;;;;;;;;;;;;;;;;;;;;;;;;;;;;;;;;;;;;;;;;;;;;;;;;;;;;;;;;
2010;[14135] VAN DER ZANDER I. (2010);samp. OW-109C;;HAWAIIAN ISLANDS / OAHU / WAIANAE / SHIELD STAGE / KAMEILE^UNU MEMBER;MAUNA KUWALE;21.463;-158.15;21.463;-158.15;;;OUTCROP;;;SUBAERIAL;VOLCANIC ROCK;ICELANDITE;;"BASALTIC; DIKE/SILL";2800000;3900000;PLIOCENE;;;;;MINERAL / COMPONENT (INCL. GROUNDMASS);OLIVINE;;;CORE;PRIMARY;39.2;;;;;;;17.5;;0.19;42.9;0.24;;0.33;;;;;;;;;;;;;;;;;;;;;;;;;;;;;;;;;;;;;;;;;;;;;;;;;;;;;;;;;;;;;;;;;;;;;;;;;;;;;;;;;;;;;;;;;;;;;;;;;;;;;;;;;;;;;;;;;;;;;;;;;;;;;;;;;;;;;;;;;;;;;;;;;;;;;;;;;;;;;;;;;;;81.4;;;;;;
2010;[14135] VAN DER ZANDER I. (2010);samp. OW-109C;;HAWAIIAN ISLANDS / OAHU / WAIANAE / SHIELD STAGE / KAMEILE^UNU MEMBER;MAUNA KUWALE;21.463;-158.15;21.463;-158.15;;;OUTCROP;;;SUBAERIAL;VOLCANIC ROCK;ICELANDITE;;"BASALTIC; DIKE/SILL";2800000;3900000;PLIOCENE;;;;;MINERAL / COMPONENT (INCL. GROUNDMASS);OLIVINE;;;CORE;PRIMARY;38.7;;;;;;;21.2;;0.28;39.7;0.29;;0.27;;;;;;;;;;;;;;;;;;;;;;;;;;;;;;;;;;;;;;;;;;;;;;;;;;;;;;;;;;;;;;;;;;;;;;;;;;;;;;;;;;;;;;;;;;;;;;;;;;;;;;;;;;;;;;;;;;;;;;;;;;;;;;;;;;;;;;;;;;;;;;;;;;;;;;;;;;;;;;;;;;;77;;;;;;
2010;[14135] VAN DER ZANDER I. (2010);samp. OW-109C;;HAWAIIAN ISLANDS / OAHU / WAIANAE / SHIELD STAGE / KAMEILE^UNU MEMBER;MAUNA KUWALE;21.463;-158.15;21.463;-158.15;;;OUTCROP;;;SUBAERIAL;VOLCANIC ROCK;ICELANDITE;;"BASALTIC; DIKE/SILL";2800000;3900000;PLIOCENE;;;;;MINERAL / COMPONENT (INCL. GROUNDMASS);OLIVINE;;;RIM;PRIMARY;38.7;;;;;;;22.3;;0.27;38.7;0.36;;0.23;;;;;;;;;;;;;;;;;;;;;;;;;;;;;;;;;;;;;;;;;;;;;;;;;;;;;;;;;;;;;;;;;;;;;;;;;;;;;;;;;;;;;;;;;;;;;;;;;;;;;;;;;;;;;;;;;;;;;;;;;;;;;;;;;;;;;;;;;;;;;;;;;;;;;;;;;;;;;;;;;;;75.6;;;;;;
2010;[14135] VAN DER ZANDER I. (2010);samp. OW-4;;HAWAIIAN ISLANDS / OAHU / WAIANAE / SHIELD STAGE / KAMEILE^UNU MEMBER;MAUNA KUWALE;21.466;-158.129;21.466;-158.129;;;OUTCROP;;;SUBAERIAL;VOLCANIC ROCK;ICELANDITE;;"BASALTIC; LAVA";2800000;3900000;PLIOCENE;;;;;MINERAL / COMPONENT (INCL. GROUNDMASS);PLAGIOCLASE;;;CORE;PRIMARY;57;;26.4;;;;1.29;;;9;;;;;0.46;EMP (EPMA);;;;;;;6.09;;;;;;;;;;;;;;;;;;;;;;;;;;;;;;;;;;;;;;;;;;;;;;;;;;;;;;;;;;;;;;;;;;;;;;;;;;;;;;;;;;;;;;;;;;;;;;;;;;;;;;;;;;;;;;;;;;;;;;;;;;;;;;;;;;;;;;;;;;;;;;;;;;;;;;;;;43.7;;;;;;;
2010;[14135] VAN DER ZANDER I. (2010);samp. OW-4;;HAWAIIAN ISLANDS / OAHU / WAIANAE / SHIELD STAGE / KAMEILE^UNU MEMBER;MAUNA KUWALE;21.466;-158.129;21.466;-158.129;;;OUTCROP;;;SUBAERIAL;VOLCANIC ROCK;ICELANDITE;;"BASALTIC; LAVA";2800000;3900000;PLIOCENE;;;;;MINERAL / COMPONENT (INCL. GROUNDMASS);PLAGIOCLASE;;;RIM;PRIMARY;59;;24.8;;;;0.4;;;6.81;;;;;0.6;EMP (EPMA);;;;;;;7.23;;;;;;;;;;;;;;;;;;;;;;;;;;;;;;;;;;;;;;;;;;;;;;;;;;;;;;;;;;;;;;;;;;;;;;;;;;;;;;;;;;;;;;;;;;;;;;;;;;;;;;;;;;;;;;;;;;;;;;;;;;;;;;;;;;;;;;;;;;;;;;;;;;;;;;;;;33;;;;;;;
2010;[14135] VAN DER ZANDER I. (2010);samp. OW-4;;HAWAIIAN ISLANDS / OAHU / WAIANAE / SHIELD STAGE / KAMEILE^UNU MEMBER;MAUNA KUWALE;21.466;-158.129;21.466;-158.129;;;OUTCROP;;;SUBAERIAL;VOLCANIC ROCK;ICELANDITE;;"BASALTIC; LAVA";2800000;3900000;PLIOCENE;;;;;MINERAL / COMPONENT (INCL. GROUNDMASS);PLAGIOCLASE;;;CORE;PRIMARY;57.4;;25.9;;;;0.44;;;8.21;;;;;0.41;EMP (EPMA);;;;;;;6.65;;;;;;;;;;;;;;;;;;;;;;;;;;;;;;;;;;;;;;;;;;;;;;;;;;;;;;;;;;;;;;;;;;;;;;;;;;;;;;;;;;;;;;;;;;;;;;;;;;;;;;;;;;;;;;;;;;;;;;;;;;;;;;;;;;;;;;;;;;;;;;;;;;;;;;;;;39.6;;;;;;;
2010;[14135] VAN DER ZANDER I. (2010);samp. OW-4;;HAWAIIAN ISLANDS / OAHU / WAIANAE / SHIELD STAGE / KAMEILE^UNU MEMBER;MAUNA KUWALE;21.466;-158.129;21.466;-158.129;;;OUTCROP;;;SUBAERIAL;VOLCANIC ROCK;ICELANDITE;;"BASALTIC; LAVA";2800000;3900000;PLIOCENE;;;;;MINERAL / COMPONENT (INCL. GROUNDMASS);PLAGIOCLASE;;;RIM;PRIMARY;60;;24.1;;;;0.43;;;5.95;;;;;0.7;EMP (EPMA);;;;;;;7.68;;;;;;;;;;;;;;;;;;;;;;;;;;;;;;;;;;;;;;;;;;;;;;;;;;;;;;;;;;;;;;;;;;;;;;;;;;;;;;;;;;;;;;;;;;;;;;;;;;;;;;;;;;;;;;;;;;;;;;;;;;;;;;;;;;;;;;;;;;;;;;;;;;;;;;;;;28.8;;;;;;;
2010;[14135] VAN DER ZANDER I. (2010);samp. 1.1.42;272775;HAWAIIAN ISLANDS / OAHU / WAIANAE / SHIELD STAGE / KAMEILE^UNU MEMBER;VICINITY OF KOLEKOLE PASS;21.462;-158.15;21.462;-158.15;;;OUTCROP;;;SUBAERIAL;VOLCANIC ROCK;ICELANDITE;;DIKE/SILL;2800000;3900000;PLIOCENE;;;;;MINERAL / COMPONENT (INCL. GROUNDMASS);PLAGIOCLASE;;;CORE;PRIMARY;55.9;;27.2;;;;0.64;;;9.78;;;;;0.33;EMP (EPMA);;;;;;;5.78;;;;;;;;;;;;;;;;;;;;;;;;;;;;;;;;;;;;;;;;;;;;;;;;;;;;;;;;;;;;;;;;;;;;;;;;;;;;;;;;;;;;;;;;;;;;;;;;;;;;;;;;;;;;;;;;;;;;;;;;;;;;;;;;;;;;;;;;;;;;;;;;;;;;;;;;;47.4;;;;;;;
2010;[14135] VAN DER ZANDER I. (2010);samp. 1.1.42;272775;HAWAIIAN ISLANDS / OAHU / WAIANAE / SHIELD STAGE / KAMEILE^UNU MEMBER;VICINITY OF KOLEKOLE PASS;21.462;-158.15;21.462;-158.15;;;OUTCROP;;;SUBAERIAL;VOLCANIC ROCK;ICELANDITE;;DIKE/SILL;2800000;3900000;PLIOCENE;;;;;MINERAL / COMPONENT (INCL. GROUNDMASS);PLAGIOCLASE;;;CORE;PRIMARY;58.5;;26.2;;;;0.59;;;8.38;;;;;0.43;EMP (EPMA);;;;;;;6.77;;;;;;;;;;;;;;;;;;;;;;;;;;;;;;;;;;;;;;;;;;;;;;;;;;;;;;;;;;;;;;;;;;;;;;;;;;;;;;;;;;;;;;;;;;;;;;;;;;;;;;;;;;;;;;;;;;;;;;;;;;;;;;;;;;;;;;;;;;;;;;;;;;;;;;;;;39.6;;;;;;;
2010;[14135] VAN DER ZANDER I. (2010);samp. 1.1.42;272775;HAWAIIAN ISLANDS / OAHU / WAIANAE / SHIELD STAGE / KAMEILE^UNU MEMBER;VICINITY OF KOLEKOLE PASS;21.462;-158.15;21.462;-158.15;;;OUTCROP;;;SUBAERIAL;VOLCANIC ROCK;ICELANDITE;;DIKE/SILL;2800000;3900000;PLIOCENE;;;;;MINERAL / COMPONENT (INCL. GROUNDMASS);PLAGIOCLASE;;;RIM;PRIMARY;56.8;;26.4;;;;0.86;;;9.15;;;;;0.34;EMP (EPMA);;;;;;;6.1;;;;;;;;;;;;;;;;;;;;;;;;;;;;;;;;;;;;;;;;;;;;;;;;;;;;;;;;;;;;;;;;;;;;;;;;;;;;;;;;;;;;;;;;;;;;;;;;;;;;;;;;;;;;;;;;;;;;;;;;;;;;;;;;;;;;;;;;;;;;;;;;;;;;;;;;;44.4;;;;;;;
2010;[14135] VAN DER ZANDER I. (2010);samp. WD-21;;HAWAIIAN ISLANDS / OAHU / WAIANAE / SHIELD STAGE / KAMEILE^UNU MEMBER;MAUNA KUWALE;21.468;-158.147;21.468;-158.147;;;OUTCROP;;;SUBAERIAL;VOLCANIC ROCK;ICELANDITE;;"BASALTIC; DIKE/SILL";2800000;3900000;PLIOCENE;;;;;MINERAL / COMPONENT (INCL. GROUNDMASS);PLAGIOCLASE;;;CORE;PRIMARY;52;;29.8;;;;0.64;;;13.3;;;;;0.12;EMP (EPMA);;;;;;;3.97;;;;;;;;;;;;;;;;;;;;;;;;;;;;;;;;;;;;;;;;;;;;;;;;;;;;;;;;;;;;;;;;;;;;;;;;;;;;;;;;;;;;;;;;;;;;;;;;;;;;;;;;;;;;;;;;;;;;;;;;;;;;;;;;;;;;;;;;;;;;;;;;;;;;;;;;;64.4;;;;;;;
2010;[14135] VAN DER ZANDER I. (2010);samp. WD-21;;HAWAIIAN ISLANDS / OAHU / WAIANAE / SHIELD STAGE / KAMEILE^UNU MEMBER;MAUNA KUWALE;21.468;-158.147;21.468;-158.147;;;OUTCROP;;;SUBAERIAL;VOLCANIC ROCK;ICELANDITE;;"BASALTIC; DIKE/SILL";2800000;3900000;PLIOCENE;;;;;MINERAL / COMPONENT (INCL. GROUNDMASS);PLAGIOCLASE;;;RIM;PRIMARY;54.7;;27.5;;;;0.84;;;11;;;;;0.24;EMP (EPMA);;;;;;;5.16;;;;;;;;;;;;;;;;;;;;;;;;;;;;;;;;;;;;;;;;;;;;;;;;;;;;;;;;;;;;;;;;;;;;;;;;;;;;;;;;;;;;;;;;;;;;;;;;;;;;;;;;;;;;;;;;;;;;;;;;;;;;;;;;;;;;;;;;;;;;;;;;;;;;;;;;;53.3;;;;;;;
2010;[14135] VAN DER ZANDER I. (2010);samp. WD-65;272781;HAWAIIAN ISLANDS / OAHU / WAIANAE / SHIELD STAGE / KAMEILE^UNU MEMBER;MAUNA KUWALE;21.473;-158.119;21.473;-158.119;;;OUTCROP;;;SUBAERIAL;VOLCANIC ROCK;ICELANDITE;;"BASALTIC; DIKE/SILL";2800000;3900000;PLIOCENE;;;;;MINERAL / COMPONENT (INCL. GROUNDMASS);PLAGIOCLASE;;;CORE;PRIMARY;54.5;;28.2;;;;0.78;;;11.1;;;;;0.2;EMP (EPMA);;;;;;;5.15;;;;;;;;;;;;;;;;;;;;;;;;;;;;;;;;;;;;;;;;;;;;;;;;;;;;;;;;;;;;;;;;;;;;;;;;;;;;;;;;;;;;;;;;;;;;;;;;;;;;;;;;;;;;;;;;;;;;;;;;;;;;;;;;;;;;;;;;;;;;;;;;;;;;;;;;;53.7;;;;;;;
2010;[14135] VAN DER ZANDER I. (2010);samp. WD-65;272781;HAWAIIAN ISLANDS / OAHU / WAIANAE / SHIELD STAGE / KAMEILE^UNU MEMBER;MAUNA KUWALE;21.473;-158.119;21.473;-158.119;;;OUTCROP;;;SUBAERIAL;VOLCANIC ROCK;ICELANDITE;;"BASALTIC; DIKE/SILL";2800000;3900000;PLIOCENE;;;;;MINERAL / COMPONENT (INCL. GROUNDMASS);PLAGIOCLASE;;;CORE;PRIMARY;61.2;;23.8;;;;0.38;;;5.81;;;;;0.63;EMP (EPMA);;;;;;;7.84;;;;;;;;;;;;;;;;;;;;;;;;;;;;;;;;;;;;;;;;;;;;;;;;;;;;;;;;;;;;;;;;;;;;;;;;;;;;;;;;;;;;;;;;;;;;;;;;;;;;;;;;;;;;;;;;;;;;;;;;;;;;;;;;;;;;;;;;;;;;;;;;;;;;;;;;;28;;;;;;;