Year;CITATION;SAMPLE NAME;UNIQUE_ID;LOCATION;LOCATION COMMENT;LATITUDE (MIN.);LONGITUDE (MIN.);LATITUDE (MAX.);LONGITUDE (MAX.);ELEVATION (MIN.);ELEVATION (MAX.);SAMPLING TECHNIQUE;DRILLING DEPTH (MIN.);DRILLING DEPTH (MAX.);LAND/SEA (SAMPLING);ROCK TYPE;ROCK NAME;ROCK TEXTURE;SAMPLE COMMENT;AGE (MIN.);AGE (MAX.);GEOLOGICAL AGE;GEOLOGICAL AGE PREFIX;ERUPTION YEAR;ALTERATION;ALTERATION TYPE;TYPE OF MATERIAL;MINERAL / COMPONENT;SPOT (MINERAL);CRYSTAL;RIM / CORE (MINERAL GRAINS);PRIMARY/SECONDARY;SIO2(WT%);TIO2(WT%);AL2O3(WT%);CR2O3(WT%);V2O3(WT%);FE2O3T(WT%);FE2O3(WT%);FEOT(WT%);FEO(WT%);CAO(WT%);MGO(WT%);MNO(WT%);BAO(WT%);NIO(WT%);K2O(WT%);;;;;;;;NA2O(WT%);P2O5(WT%);H2O(WT%);H2OP(WT%);H2OM(WT%);CO2(WT%);F(WT%);LOI(WT%);K(WT%);;;;HE(CCMSTP/G);BE(PPM);F(PPM);;;;NE22(CCMSTP/G);S(PPM);CL(PPM);AR36(CCMSTP/G);AR40(MOL/G): altern. values or methods;;;;SC(PPM): altern. values or methods;;;;V(PPM): altern. values or methods;;;;CR(PPM): altern. values or methods;;;;MN(PPM);CO(PPM): altern. values or methods;;;;NI(PPM): altern. values or methods;;;;CU(PPM): altern. values or methods;;;;ZN(PPM): altern. values or methods;;;;GA(PPM);GE(PPM);AS(PPM);RB(PPM): altern. values or methods;;;;SR(PPM): altern. values or methods;;;;Y(PPM): altern. values or methods;;;;ZR(PPM): altern. values or methods;;;;NB(PPM);MO(PPM);CD(PPM);SN(PPM);SB(PPM);TE(PPM);CS(PPM);BA(PPM): altern. values or methods;;;;LA(PPM): altern. values or methods;;;;CE(PPM);PR(PPM);ND(PPM): altern. values or methods;;;;SM(PPM): altern. values or methods;;;;EU(PPM);GD(PPM);TB(PPM);DY(PPM);HO(PPM);ER(PPM);TM(PPM);YB(PPM);LU(PPM);HF(PPM);TA(PPM);W(PPM);RE(PPT): altern. values or methods;;;;AU(PPB);TL(PPM);PB(PPM);BI(PPM);TH(PPM);U(PPM);ND143_ND144;SM147_ND144;SR87_SR86;RB87_SR86;PB206_PB204;PB207_PB204;PB208_PB204;PB208_PB206;HE3_HE4(R/R(A));AR38_AR36;AR40_AR36;KR78_KR84;KR80_KR84;KR82_KR84;KR83_KR84;KR86_KR84;XE124_XE132;XE126_XE132;XE128_XE132;XE129_XE132;XE130_XE132;XE131_XE132;XE134_XE132;XE136_XE132;TH230_TH232_ACT;U238_TH232_ACT;D18O(PER MIL);D18O(VS SMOW);D18O(VS VSMOW);D34S(VS CDT);DD(VS VSMOW);ALBITE(MOL%);ANORTHITE(MOL%);FORSTERITE(MOL%);MAGNETITE(MOL%);ORTHOCLASE(MOL%);ULVOSPINEL(MOL%);AGE(KA);AGE(MA);
[1150] JANCIN M., YOUNG K. D., VOIGHT B., ARONSON J. L., SAEMUNDSSON K.:   STRATIGRAPHY AND K/AR AGES ACROSS THE WEST FLANK OF THE NORTHEAST ICELAND AXIAL RIFT ZONE, IN RELATION TO THE 7 MA VOLCANO-TECTONIC REORGANIZATION OF ICELAND |  J. GEOPHYS. RES. B90    [1985]  9961-9985  | doi: 10.1029/JB090iB12p09961;;;;;;;;;;;;;;;;;;;;;;;;;;;;;;;;;;;;;;;;;;;;;;;;;;;;;;;;;;;;;;;;;;;;;;;;;;;;;;;;;;;;;;;;;;;;;;;;;;;;;;;;;;;;;;;;;;;;;;;;;;;;;;;;;;;;;;;;;;;;;;;;;;;;;;;;;;;;;;;;;;;;;;;;;;;;;;;;;;;;;;;;;;;;;;;;;;;;;;;;;;;;;;;;;;;;;;;
[1188] O^NIONS R. K., GRÖNVOLD K.:   PETROGENETIC RELATIONSHIPS OF ACID AND BASIC ROCKS IN ICELAND: SR ISOTOPES AND RARE-EARTH ELEMENTS IN LATE AND POST-GLACIAL VOLCANICS |  EARTH PLANET. SCI. LETT. 19    [1973]  397-409  | doi: 10.1016/0012-821X(73)90182-9;;;;;;;;;;;;;;;;;;;;;;;;;;;;;;;;;;;;;;;;;;;;;;;;;;;;;;;;;;;;;;;;;;;;;;;;;;;;;;;;;;;;;;;;;;;;;;;;;;;;;;;;;;;;;;;;;;;;;;;;;;;;;;;;;;;;;;;;;;;;;;;;;;;;;;;;;;;;;;;;;;;;;;;;;;;;;;;;;;;;;;;;;;;;;;;;;;;;;;;;;;;;;;;;;;;;;;;
[1189] O^NIONS R. K., PANKHURST R. J.:   SECULAR VARIATIONS IN THE SR ISOTOPE COMPOSITION OF ICELANDIC VOLCANIC ROCKS |  EARTH PLANET. SCI. LETT. 21    [1973]  13-22  | doi: 10.1016/0012-821X(73)90220-3;;;;;;;;;;;;;;;;;;;;;;;;;;;;;;;;;;;;;;;;;;;;;;;;;;;;;;;;;;;;;;;;;;;;;;;;;;;;;;;;;;;;;;;;;;;;;;;;;;;;;;;;;;;;;;;;;;;;;;;;;;;;;;;;;;;;;;;;;;;;;;;;;;;;;;;;;;;;;;;;;;;;;;;;;;;;;;;;;;;;;;;;;;;;;;;;;;;;;;;;;;;;;;;;;;;;;;;
[1223] CONDOMINES M., GRÖNVOLD K., HOOKER P. J., MÜHLENBACHS K., O^NIONS R. K., OSKARSSON N., OXBURGH E. R.:   HELIUM, OXYGEN, STRONTIUM AND NEODYMIUM ISOTOPIC RELATIONSHIPS IN ICELANDIC VOLCANICS |  EARTH PLANET. SCI. LETT. 66    [1983]  125-136  | doi: 10.1016/0012-821X(83)90131-0;;;;;;;;;;;;;;;;;;;;;;;;;;;;;;;;;;;;;;;;;;;;;;;;;;;;;;;;;;;;;;;;;;;;;;;;;;;;;;;;;;;;;;;;;;;;;;;;;;;;;;;;;;;;;;;;;;;;;;;;;;;;;;;;;;;;;;;;;;;;;;;;;;;;;;;;;;;;;;;;;;;;;;;;;;;;;;;;;;;;;;;;;;;;;;;;;;;;;;;;;;;;;;;;;;;;;;;
[1417] MACDONALD R., SPARKS R. S. J., SIGURDSSON H., MATTEY D. P., MCGARVIE D. W., SMITH R. L.:   THE 1875 ERUPTION OF ASKJA VOLCANO, ICELAND: COMBINED FRACTIONAL CRYSTALLIZATION AND SELECTIVE CONTAMINATION IN THE GENERATION OF RHYOLITIC MAGMA |  MINERAL. MAG. 51    [1987]  183-202  | doi: 10.1180/minmag.1987.051.360.01;;;;;;;;;;;;;;;;;;;;;;;;;;;;;;;;;;;;;;;;;;;;;;;;;;;;;;;;;;;;;;;;;;;;;;;;;;;;;;;;;;;;;;;;;;;;;;;;;;;;;;;;;;;;;;;;;;;;;;;;;;;;;;;;;;;;;;;;;;;;;;;;;;;;;;;;;;;;;;;;;;;;;;;;;;;;;;;;;;;;;;;;;;;;;;;;;;;;;;;;;;;;;;;;;;;;;;;
[1424] SIGURDSSON H., SPARKS R. S. J.:   PETROLOGY OF RHYOLITIC AND MIXED MAGMA EJECTA FROM THE 1875 ERUPTION OF ASKJA, ICELAND |  J. PETROL. 22    [1981]  41-84  | doi: 10.1093/petrology/22.1.41;;;;;;;;;;;;;;;;;;;;;;;;;;;;;;;;;;;;;;;;;;;;;;;;;;;;;;;;;;;;;;;;;;;;;;;;;;;;;;;;;;;;;;;;;;;;;;;;;;;;;;;;;;;;;;;;;;;;;;;;;;;;;;;;;;;;;;;;;;;;;;;;;;;;;;;;;;;;;;;;;;;;;;;;;;;;;;;;;;;;;;;;;;;;;;;;;;;;;;;;;;;;;;;;;;;;;;;
[1516] CONDOMINES M., MORAND P., ALLEGRE C.-J., SIGVALDASON G. E.:   230TH-238U DISEQUILIBRIA IN HISTORICAL LAVAS FROM ICELAND |  EARTH PLANET. SCI. LETT. 55    [1981]  393-406  | doi: 10.1016/0012-821X(81)90167-9;;;;;;;;;;;;;;;;;;;;;;;;;;;;;;;;;;;;;;;;;;;;;;;;;;;;;;;;;;;;;;;;;;;;;;;;;;;;;;;;;;;;;;;;;;;;;;;;;;;;;;;;;;;;;;;;;;;;;;;;;;;;;;;;;;;;;;;;;;;;;;;;;;;;;;;;;;;;;;;;;;;;;;;;;;;;;;;;;;;;;;;;;;;;;;;;;;;;;;;;;;;;;;;;;;;;;;;
"[1574] MCDOUGALL I., SAEMUNDSSON K., JOHANNESSON N. D., WATKINS N. D., KRISTJANSSON L.:   EXTENSION OF THE GEOMAGNETIC POLARITY TIME SCALE TO 6.5 MY.: K-AR DATING, GEOLOGICAL AND PALEOMAGNETIC STUDY OF A 3500 M LAVA SUCCESSION IN WESTERN ICELAND |  BULL. GEOL. SOC. AM. 88    [1977]  1-15  | doi: 10.1130/0016-7606(1977)88<1:EOTGPT>2.0.CO;2";;;;;;;;;;;;;;;;;;;;;;;;;;;;;;;;;;;;;;;;;;;;;;;;;;;;;;;;;;;;;;;;;;;;;;;;;;;;;;;;;;;;;;;;;;;;;;;;;;;;;;;;;;;;;;;;;;;;;;;;;;;;;;;;;;;;;;;;;;;;;;;;;;;;;;;;;;;;;;;;;;;;;;;;;;;;;;;;;;;;;;;;;;;;;;;;;;;;;;;;;;;;;;;;;;;;;;;
[2056] RIDGEWAY J., COULSON F. I. E.:   THE GEOLOGY OF CHOISEUL AND THE SHORTLAND ISLANDS, SOLOMON ISLANDS |  BRITISH GEOL. SURV., HMSO, OVERSEAS MEM. 8    [1987]  1-134;;;;;;;;;;;;;;;;;;;;;;;;;;;;;;;;;;;;;;;;;;;;;;;;;;;;;;;;;;;;;;;;;;;;;;;;;;;;;;;;;;;;;;;;;;;;;;;;;;;;;;;;;;;;;;;;;;;;;;;;;;;;;;;;;;;;;;;;;;;;;;;;;;;;;;;;;;;;;;;;;;;;;;;;;;;;;;;;;;;;;;;;;;;;;;;;;;;;;;;;;;;;;;;;;;;;;;;
[2170] GREEN J. C., FITZ T. J. III:   EXTENSIVE FELSIC LAVAS AND RHEOIGNIMBRITES IN THE KEWEENAWAN MIDCONTINENT RIFT PLATEAU VOLCANICS, MINNESOTA: PETROGRAPHIC AND FIELD RECOGNITION |  J. VOLCANOL. GEOTHERM. RES. 54    [1993]  177-196  | doi: 10.1016/0377-0273(93)90063-W;;;;;;;;;;;;;;;;;;;;;;;;;;;;;;;;;;;;;;;;;;;;;;;;;;;;;;;;;;;;;;;;;;;;;;;;;;;;;;;;;;;;;;;;;;;;;;;;;;;;;;;;;;;;;;;;;;;;;;;;;;;;;;;;;;;;;;;;;;;;;;;;;;;;;;;;;;;;;;;;;;;;;;;;;;;;;;;;;;;;;;;;;;;;;;;;;;;;;;;;;;;;;;;;;;;;;;;
[2175] VERVOORT J. D., GREEN J. C.:   ORIGIN OF EVOLVED MAGMAS IN THE MIDCONTINENT RIFT SYSTEM, NORTHEAST MINNESOTA: ND-ISOTOPE EVIDENCE FOR MELTING OF ARCHEAN CRUST |  CAN. J. EARTH SCI. 34    [1997]  521-535  | doi: 10.1139/e17-042;;;;;;;;;;;;;;;;;;;;;;;;;;;;;;;;;;;;;;;;;;;;;;;;;;;;;;;;;;;;;;;;;;;;;;;;;;;;;;;;;;;;;;;;;;;;;;;;;;;;;;;;;;;;;;;;;;;;;;;;;;;;;;;;;;;;;;;;;;;;;;;;;;;;;;;;;;;;;;;;;;;;;;;;;;;;;;;;;;;;;;;;;;;;;;;;;;;;;;;;;;;;;;;;;;;;;;;
[2414] EWART A., MILNER S. C., ARMSTRONG R. A., DUNCAN R. A.:   ETENDEKA VOLCANISM OF THE GOBOBOSEB MOUNTAINS AND MESSUM IGNEOUS COMPLEX, NAMIBIA, PART 1. GEOCHEMICAL EVIDENCE OF EARLY CRETACEOUS TRISTAN PLUME MELTS AND THE ROLE OF CRUSTAL CONTAMINATION IN THE PARANÁ-ETENDEKA CFB |  J. PETROL. 39    [1998]  191-225  | doi: 10.1093/petroj/39.2.191;;;;;;;;;;;;;;;;;;;;;;;;;;;;;;;;;;;;;;;;;;;;;;;;;;;;;;;;;;;;;;;;;;;;;;;;;;;;;;;;;;;;;;;;;;;;;;;;;;;;;;;;;;;;;;;;;;;;;;;;;;;;;;;;;;;;;;;;;;;;;;;;;;;;;;;;;;;;;;;;;;;;;;;;;;;;;;;;;;;;;;;;;;;;;;;;;;;;;;;;;;;;;;;;;;;;;;;
[3723] TURNER C. C., RIDGEWAY J.:   THOLEIITIC, CALC-ALKALINE AND (?) ALKALINE IGNEOUS ROCKS OF THE SHORTLAND ISLANDS, SOLOMON ISLANDS |  TECTONOPHYSICS 87    [1982]  335-354  | doi: 10.1016/0040-1951(82)90232-3;;;;;;;;;;;;;;;;;;;;;;;;;;;;;;;;;;;;;;;;;;;;;;;;;;;;;;;;;;;;;;;;;;;;;;;;;;;;;;;;;;;;;;;;;;;;;;;;;;;;;;;;;;;;;;;;;;;;;;;;;;;;;;;;;;;;;;;;;;;;;;;;;;;;;;;;;;;;;;;;;;;;;;;;;;;;;;;;;;;;;;;;;;;;;;;;;;;;;;;;;;;;;;;;;;;;;;;
[4874] DAVIS D. W., GREEN J. C.:   GEOCHRONOLOGY OF THE NORTH AMERICAN MIDCONTINENT RIFT IN WESTERN LAKE SUPERIOR AND IMPLICATIONS FOR ITS GEODYNAMIC EVOLUTION |  CAN. J. EARTH SCI. 34    [1997]  476-488  | doi: 10.1139/e17-039;;;;;;;;;;;;;;;;;;;;;;;;;;;;;;;;;;;;;;;;;;;;;;;;;;;;;;;;;;;;;;;;;;;;;;;;;;;;;;;;;;;;;;;;;;;;;;;;;;;;;;;;;;;;;;;;;;;;;;;;;;;;;;;;;;;;;;;;;;;;;;;;;;;;;;;;;;;;;;;;;;;;;;;;;;;;;;;;;;;;;;;;;;;;;;;;;;;;;;;;;;;;;;;;;;;;;;;
[5889] PARK Y.-R., RIPLEY E. M.:   HYDROTHERMAL FLOW SYSTEMS IN THE MIDCONTINENT RIFT: OXYGEN AND HYDROGEN ISOTOPIC STUDIES OF THE NORTH SHORE VOLCANIC GROUP AND RELATED HYPABYSSAL SILLS, MINNESOTA |  GEOCHIM. COSMOCHIM. ACTA 63    [1999]  1787-1804  | doi: 10.1016/S0016-7037(99)00101-5;;;;;;;;;;;;;;;;;;;;;;;;;;;;;;;;;;;;;;;;;;;;;;;;;;;;;;;;;;;;;;;;;;;;;;;;;;;;;;;;;;;;;;;;;;;;;;;;;;;;;;;;;;;;;;;;;;;;;;;;;;;;;;;;;;;;;;;;;;;;;;;;;;;;;;;;;;;;;;;;;;;;;;;;;;;;;;;;;;;;;;;;;;;;;;;;;;;;;;;;;;;;;;;;;;;;;;;
[6480] ASHCROFT J.:   THE KERIKERI VOLCANICS: A BASALT-PANTELLERITE ASSOCIATION IN NORTHLAND |  ROYAL SOC. NEW ZEALAND BULL. 23    [1986]  48-63;;;;;;;;;;;;;;;;;;;;;;;;;;;;;;;;;;;;;;;;;;;;;;;;;;;;;;;;;;;;;;;;;;;;;;;;;;;;;;;;;;;;;;;;;;;;;;;;;;;;;;;;;;;;;;;;;;;;;;;;;;;;;;;;;;;;;;;;;;;;;;;;;;;;;;;;;;;;;;;;;;;;;;;;;;;;;;;;;;;;;;;;;;;;;;;;;;;;;;;;;;;;;;;;;;;;;;;
[6893] MCBIRNEY A. R., THOMPSON P. M. E., KEMPTON P. D., WHITE R. V., KERR A. C., TARNEY J., SAUNDERS A. D., FITTON J. G.:   HF-ND ISOTOPE CONSTRAINTS ON THE ORIGIN OF THE CRETACEOUS CARIBBEAN PLATEAU AND ITS RELATIONSHIP TO THE GALAPAGOS PLUME |  EARTH PLANET. SCI. LETT. 217    [2003]  59-75  | doi: 10.1016/S0012-821X(03)00542-9;;;;;;;;;;;;;;;;;;;;;;;;;;;;;;;;;;;;;;;;;;;;;;;;;;;;;;;;;;;;;;;;;;;;;;;;;;;;;;;;;;;;;;;;;;;;;;;;;;;;;;;;;;;;;;;;;;;;;;;;;;;;;;;;;;;;;;;;;;;;;;;;;;;;;;;;;;;;;;;;;;;;;;;;;;;;;;;;;;;;;;;;;;;;;;;;;;;;;;;;;;;;;;;;;;;;;;;
[7709] LAPIERRE H., BOSCH D., TARDY M., STRUIK L. C.:   LATE PALEOZOIC AND TRIASSIC PLUME-DERIVED MAGMAS IN THE CANADIAN CORDILLERA PLAYED A KEY ROLE IN CONTINENTAL CRUST GROWTH |  CHEM. GEOL. 201    [2003]  55-89  | doi: 10.1016/S0009-2541(03)00224-9;;;;;;;;;;;;;;;;;;;;;;;;;;;;;;;;;;;;;;;;;;;;;;;;;;;;;;;;;;;;;;;;;;;;;;;;;;;;;;;;;;;;;;;;;;;;;;;;;;;;;;;;;;;;;;;;;;;;;;;;;;;;;;;;;;;;;;;;;;;;;;;;;;;;;;;;;;;;;;;;;;;;;;;;;;;;;;;;;;;;;;;;;;;;;;;;;;;;;;;;;;;;;;;;;;;;;;;
[8074] HARE A. G., CAS R. A. F., MUSGRAVE R. J., PHILLIPS D.:   MAGNETIC AND CHEMICAL STRATIGRAPHY FOR THE WERRIBEE PLAINS BASALTIC LAVA FLOW-FIELD, NEWER VOLCANICS PROVINCE, SOUTHEAST AUSTRALIA: IMPLICATIONS FOR ERUPTION FREQUENCY |  AUSTR. J. EARTH SCI. 52    [2005]  41-57  | doi: 10.1080/08120090500100069;;;;;;;;;;;;;;;;;;;;;;;;;;;;;;;;;;;;;;;;;;;;;;;;;;;;;;;;;;;;;;;;;;;;;;;;;;;;;;;;;;;;;;;;;;;;;;;;;;;;;;;;;;;;;;;;;;;;;;;;;;;;;;;;;;;;;;;;;;;;;;;;;;;;;;;;;;;;;;;;;;;;;;;;;;;;;;;;;;;;;;;;;;;;;;;;;;;;;;;;;;;;;;;;;;;;;;;
[8185] JONASSON K.:   MAGMATIC EVOLUTION OF THE HEIDARSPORDUR RIDGE, NE-ICELAND |  J. VOLCANOL. GEOTHERM. RES. 147    [2005]  109-124  | doi: 10.1016/j.jvolgeores.2005.03.009;;;;;;;;;;;;;;;;;;;;;;;;;;;;;;;;;;;;;;;;;;;;;;;;;;;;;;;;;;;;;;;;;;;;;;;;;;;;;;;;;;;;;;;;;;;;;;;;;;;;;;;;;;;;;;;;;;;;;;;;;;;;;;;;;;;;;;;;;;;;;;;;;;;;;;;;;;;;;;;;;;;;;;;;;;;;;;;;;;;;;;;;;;;;;;;;;;;;;;;;;;;;;;;;;;;;;;;
[8247] PRICE R. C., GRAY C. M., FREY F. A.:   STRONTIUM ISOTOPIC AND TRACE ELEMENT HETEROGENEITY IN THE PLAINS BASALTS OF THE NEWER VOLCANIC PROVINCE, VICTORIA, AUSTRALIA |  GEOCHIM. COSMOCHIM. ACTA 61    [1997]  171-192  | doi: 10.1016/S0016-7037(96)00318-3;;;;;;;;;;;;;;;;;;;;;;;;;;;;;;;;;;;;;;;;;;;;;;;;;;;;;;;;;;;;;;;;;;;;;;;;;;;;;;;;;;;;;;;;;;;;;;;;;;;;;;;;;;;;;;;;;;;;;;;;;;;;;;;;;;;;;;;;;;;;;;;;;;;;;;;;;;;;;;;;;;;;;;;;;;;;;;;;;;;;;;;;;;;;;;;;;;;;;;;;;;;;;;;;;;;;;;;
[8829] TAKAHASHI M., NOGUCHI T., TAGIRI M.:   THE REE COMPOSITION OF MIOCENE ICELANDITE IN NORTHEAST JAPAN, AND IMPLICATION FOR THE ORIGIN OF ICELANDITE MAGMA |  MEM. GEOL. SOC. JAPAN 44    [1995]  65-74;;;;;;;;;;;;;;;;;;;;;;;;;;;;;;;;;;;;;;;;;;;;;;;;;;;;;;;;;;;;;;;;;;;;;;;;;;;;;;;;;;;;;;;;;;;;;;;;;;;;;;;;;;;;;;;;;;;;;;;;;;;;;;;;;;;;;;;;;;;;;;;;;;;;;;;;;;;;;;;;;;;;;;;;;;;;;;;;;;;;;;;;;;;;;;;;;;;;;;;;;;;;;;;;;;;;;;;
[8932] TARDY M., LAPIERRE H., STRUIK L. C., BOSCH D., BRUNET P.:   THE INFLUENCE OF MANTLE PLUME IN THE GENESIS OF THE CACHE CREEK OCEANIC IGNEOUS ROCKS: IMPLICATIONS FOR THE GEODYNAMIC EVOLUTION OF THE INNER ACCRETED TERRANES OF THE CANADIAN CORDILLERA |  CAN. J. EARTH SCI. 38    [2001]  515-534  | GeoReM-id: 1019 | doi: 10.1139/e00-104;;;;;;;;;;;;;;;;;;;;;;;;;;;;;;;;;;;;;;;;;;;;;;;;;;;;;;;;;;;;;;;;;;;;;;;;;;;;;;;;;;;;;;;;;;;;;;;;;;;;;;;;;;;;;;;;;;;;;;;;;;;;;;;;;;;;;;;;;;;;;;;;;;;;;;;;;;;;;;;;;;;;;;;;;;;;;;;;;;;;;;;;;;;;;;;;;;;;;;;;;;;;;;;;;;;;;;;
[9811] ARNORSSON S., OSKARSSON N.:   MOLYBDENUM AND TUNGSTEN IN VOLCANIC ROCKS AND IN SURFACE AND <100 °C GROUND WATERS IN ICELAND |  GEOCHIM. COSMOCHIM. ACTA 71    [2007]  284-304  | doi: 10.1016/j.gca.2006.09.030;;;;;;;;;;;;;;;;;;;;;;;;;;;;;;;;;;;;;;;;;;;;;;;;;;;;;;;;;;;;;;;;;;;;;;;;;;;;;;;;;;;;;;;;;;;;;;;;;;;;;;;;;;;;;;;;;;;;;;;;;;;;;;;;;;;;;;;;;;;;;;;;;;;;;;;;;;;;;;;;;;;;;;;;;;;;;;;;;;;;;;;;;;;;;;;;;;;;;;;;;;;;;;;;;;;;;;;
"[11263] BATIZA R.:   GEOLOGY, PETROLOGY, AND GEOCHEMISTRY OF ISLA TORTUGA, A RECENTLY FORMED THOLEIITIC ISLAND IN THE GULF OF CALIFORNIA |  BULL. GEOL. SOC. AM. 89    [1978]  1309-1324  | doi: 10.1130/0016-7606(1978)89<1309:GPAGOI>2.0.CO;2";;;;;;;;;;;;;;;;;;;;;;;;;;;;;;;;;;;;;;;;;;;;;;;;;;;;;;;;;;;;;;;;;;;;;;;;;;;;;;;;;;;;;;;;;;;;;;;;;;;;;;;;;;;;;;;;;;;;;;;;;;;;;;;;;;;;;;;;;;;;;;;;;;;;;;;;;;;;;;;;;;;;;;;;;;;;;;;;;;;;;;;;;;;;;;;;;;;;;;;;;;;;;;;;;;;;;;;
[12687] VIDAL-SOLANO J. R., LAPIERRE H., STOCK J. M., DEMANT A., PAZ MORENO F. A., BOSCH D., BRUNET P., AMORTEGUI A.:   ISOTOPE GEOCHEMISTRY AND PETROGENESIS OF PERALKALINE MIDDLE MIOCENE IGNIMBRITES FROM CENTRAL SONORA: RELATIONSHIP WITH CONTINENTAL BREAK-UP AND THE BIRTH OF THE GULF OF CALIFORNIA |  BULL. SOC. GEOL. FRANCE 179    [2008]  453-464  | doi: 10.2113/gssgfbull.179.5.453;;;;;;;;;;;;;;;;;;;;;;;;;;;;;;;;;;;;;;;;;;;;;;;;;;;;;;;;;;;;;;;;;;;;;;;;;;;;;;;;;;;;;;;;;;;;;;;;;;;;;;;;;;;;;;;;;;;;;;;;;;;;;;;;;;;;;;;;;;;;;;;;;;;;;;;;;;;;;;;;;;;;;;;;;;;;;;;;;;;;;;;;;;;;;;;;;;;;;;;;;;;;;;;;;;;;;;;
[13136] GRAY C. M., MCDOUGALL I.:   K-AR GEOCHRONOLOGY OF BASALT PETROGENESIS, NEWER VOLCANIC PROVINCE, VICTORIA |  AUSTR. J. EARTH SCI. 56    [2009]  245-258  | doi: 10.1080/08120090802547066;;;;;;;;;;;;;;;;;;;;;;;;;;;;;;;;;;;;;;;;;;;;;;;;;;;;;;;;;;;;;;;;;;;;;;;;;;;;;;;;;;;;;;;;;;;;;;;;;;;;;;;;;;;;;;;;;;;;;;;;;;;;;;;;;;;;;;;;;;;;;;;;;;;;;;;;;;;;;;;;;;;;;;;;;;;;;;;;;;;;;;;;;;;;;;;;;;;;;;;;;;;;;;;;;;;;;;;
[13281] BATIZA R., BERNATOWICZ T. J., HOHENBERG C. M., PODOSEK F. A.:   RELATIONS OF NOBLE GAS ABUNDANCES TO PETROGENESIS AND MAGMATIC EVOLUTION OF SOME OCEANIC BASALTS AND RELATED DIFFERENTIATED VOLCANIC ROCKS |  CONTRIB. MINERAL. PETROL. 69    [1979]  301-313  | doi: 10.1007/BF00372332;;;;;;;;;;;;;;;;;;;;;;;;;;;;;;;;;;;;;;;;;;;;;;;;;;;;;;;;;;;;;;;;;;;;;;;;;;;;;;;;;;;;;;;;;;;;;;;;;;;;;;;;;;;;;;;;;;;;;;;;;;;;;;;;;;;;;;;;;;;;;;;;;;;;;;;;;;;;;;;;;;;;;;;;;;;;;;;;;;;;;;;;;;;;;;;;;;;;;;;;;;;;;;;;;;;;;;;
[14135] VAN DER ZANDER I., SINTON J. M., MAHONEY J. J.:   LATE SHIELD-STAGE SILICIC MAGMATISM AT WAI^ANAE VOLCANO: EVIDENCE FOR HYDROUS CRUSTAL MELTING IN HAWAIIAN VOLCANOES |  J. PETROL. 51    [2010]  671-701  | doi: 10.1093/petrology/egp094;;;;;;;;;;;;;;;;;;;;;;;;;;;;;;;;;;;;;;;;;;;;;;;;;;;;;;;;;;;;;;;;;;;;;;;;;;;;;;;;;;;;;;;;;;;;;;;;;;;;;;;;;;;;;;;;;;;;;;;;;;;;;;;;;;;;;;;;;;;;;;;;;;;;;;;;;;;;;;;;;;;;;;;;;;;;;;;;;;;;;;;;;;;;;;;;;;;;;;;;;;;;;;;;;;;;;;;
[14165] ZBINDEN E. A., SINTON C. W.:   DIKES AND THE PETROLOGY OF WAIANAE VOLCANO, OAHU |  J. GEOPHYS. RES. B93    [1988]  14856-14866  | doi: 10.1029/JB093iB12p14856;;;;;;;;;;;;;;;;;;;;;;;;;;;;;;;;;;;;;;;;;;;;;;;;;;;;;;;;;;;;;;;;;;;;;;;;;;;;;;;;;;;;;;;;;;;;;;;;;;;;;;;;;;;;;;;;;;;;;;;;;;;;;;;;;;;;;;;;;;;;;;;;;;;;;;;;;;;;;;;;;;;;;;;;;;;;;;;;;;;;;;;;;;;;;;;;;;;;;;;;;;;;;;;;;;;;;;;
[19616] EWART A., CHAPPELL B. W., MENZIES M. A.:   AN OVERVIEW OF THE GEOCHEMICAL AND ISOTOPIC CHARACTERISTICS OF THE EASTERN AUSTRALIAN CAINOZOIC VOLCANIC PROVINCES |   [1988]  225-273  | doi: 10.1093/petrology/Special_Volume.1.225;;;;;;;;;;;;;;;;;;;;;;;;;;;;;;;;;;;;;;;;;;;;;;;;;;;;;;;;;;;;;;;;;;;;;;;;;;;;;;;;;;;;;;;;;;;;;;;;;;;;;;;;;;;;;;;;;;;;;;;;;;;;;;;;;;;;;;;;;;;;;;;;;;;;;;;;;;;;;;;;;;;;;;;;;;;;;;;;;;;;;;;;;;;;;;;;;;;;;;;;;;;;;;;;;;;;;;;
[19680] MANCINI A., MATTSSON H. B., BACHMANN O.:   ORIGIN OF THE COMPOSITION DIVERSITY IN THE BASALT-TO-DACITE SERIES ERUPTED ALONG THE HEIOARSPOROUR RIDGE, NE ICELAND |  J. VOLCANOL. GEOTHERM. RES. 301    [2015]  116-127  | doi: 10.1016/j.jvolgeores.2015.05.010;;;;;;;;;;;;;;;;;;;;;;;;;;;;;;;;;;;;;;;;;;;;;;;;;;;;;;;;;;;;;;;;;;;;;;;;;;;;;;;;;;;;;;;;;;;;;;;;;;;;;;;;;;;;;;;;;;;;;;;;;;;;;;;;;;;;;;;;;;;;;;;;;;;;;;;;;;;;;;;;;;;;;;;;;;;;;;;;;;;;;;;;;;;;;;;;;;;;;;;;;;;;;;;;;;;;;;;
Criteria:;;;;;;;;;;;;;;;;;;;;;;;;;;;;;;;;;;;;;;;;;;;;;;;;;;;;;;;;;;;;;;;;;;;;;;;;;;;;;;;;;;;;;;;;;;;;;;;;;;;;;;;;;;;;;;;;;;;;;;;;;;;;;;;;;;;;;;;;;;;;;;;;;;;;;;;;;;;;;;;;;;;;;;;;;;;;;;;;;;;;;;;;;;;;;;;;;;;;;;;;;;;;;;;;;;;;;;;