Year;CITATION;SAMPLE NAME;UNIQUE_ID;LOCATION;LOCATION COMMENT;LATITUDE (MIN.);LONGITUDE (MIN.);LATITUDE (MAX.);LONGITUDE (MAX.);ELEVATION (MIN.);ELEVATION (MAX.);SAMPLING TECHNIQUE;DRILLING DEPTH (MIN.);DRILLING DEPTH (MAX.);LAND/SEA (SAMPLING);ROCK TYPE;ROCK NAME;ROCK TEXTURE;SAMPLE COMMENT;AGE (MIN.);AGE (MAX.);GEOLOGICAL AGE;GEOLOGICAL AGE PREFIX;ERUPTION YEAR;ALTERATION;ALTERATION TYPE;TYPE OF MATERIAL;MINERAL / COMPONENT;SPOT (MINERAL);CRYSTAL;RIM / CORE (MINERAL GRAINS);PRIMARY/SECONDARY;SIO2(WT%);TIO2(WT%);AL2O3(WT%);CR2O3(WT%);V2O3(WT%);FE2O3T(WT%);FE2O3(WT%);FEOT(WT%);FEO(WT%);CAO(WT%);MGO(WT%);MNO(WT%);BAO(WT%);NIO(WT%);K2O(WT%);;;;;;;;NA2O(WT%);P2O5(WT%);H2O(WT%);H2OP(WT%);H2OM(WT%);CO2(WT%);F(WT%);LOI(WT%);K(WT%);;;;HE(CCMSTP/G);BE(PPM);F(PPM);;;;NE22(CCMSTP/G);S(PPM);CL(PPM);AR36(CCMSTP/G);AR40(MOL/G): altern. values or methods;;;;SC(PPM): altern. values or methods;;;;V(PPM): altern. values or methods;;;;CR(PPM): altern. values or methods;;;;MN(PPM);CO(PPM): altern. values or methods;;;;NI(PPM): altern. values or methods;;;;CU(PPM): altern. values or methods;;;;ZN(PPM): altern. values or methods;;;;GA(PPM);GE(PPM);AS(PPM);RB(PPM): altern. values or methods;;;;SR(PPM): altern. values or methods;;;;Y(PPM): altern. values or methods;;;;ZR(PPM): altern. values or methods;;;;NB(PPM);MO(PPM);CD(PPM);SN(PPM);SB(PPM);TE(PPM);CS(PPM);BA(PPM): altern. values or methods;;;;LA(PPM): altern. values or methods;;;;CE(PPM);PR(PPM);ND(PPM): altern. values or methods;;;;SM(PPM): altern. values or methods;;;;EU(PPM);GD(PPM);TB(PPM);DY(PPM);HO(PPM);ER(PPM);TM(PPM);YB(PPM);LU(PPM);HF(PPM);TA(PPM);W(PPM);RE(PPT): altern. values or methods;;;;AU(PPB);TL(PPM);PB(PPM);BI(PPM);TH(PPM);U(PPM);ND143_ND144;SM147_ND144;SR87_SR86;RB87_SR86;PB206_PB204;PB207_PB204;PB208_PB204;PB208_PB206;HE3_HE4(R/R(A));AR38_AR36;AR40_AR36;KR78_KR84;KR80_KR84;KR82_KR84;KR83_KR84;KR86_KR84;XE124_XE132;XE126_XE132;XE128_XE132;XE129_XE132;XE130_XE132;XE131_XE132;XE134_XE132;XE136_XE132;TH230_TH232_ACT;U238_TH232_ACT;D18O(PER MIL);D18O(VS SMOW);D18O(VS VSMOW);D34S(VS CDT);DD(VS VSMOW);ALBITE(MOL%);ANORTHITE(MOL%);FORSTERITE(MOL%);MAGNETITE(MOL%);ORTHOCLASE(MOL%);ULVOSPINEL(MOL%);AGE(KA);AGE(MA);
1974;[507] O^NIONS R. K. (1974);samp. SNS14;9979;ICELAND / ICELAND / SNAEFELLSJÖKULL;SNAEFELLSNES PENINSULA, HAAHRAUN, SOUTHERN SLOPE OF VOLCANO;64.742;-23.743;64.742;-23.743;;;OUTCROP;;;SUBAERIAL;VOLCANIC ROCK;ICELANDITE;;;;;;;;;;WHOLE ROCK;;;;;;;;;;;;;;;;;;;;;;;;;;;;;;;;;;;;;;;;;;;;;;;;;;;;;;;;;;;;;;;;;;;;;;;;;;;;;;;;;;;;;;75;XRF;;;355;XRF;;;;;;;;;;;;;;;;;;;;;;;;;;;;;;;;;;;;;;;;;;;;;;;;;;;;;;;;;;;;0.70335;0.61;;;;;;;;;;;;;;;;;;;;;;;;;;;;;;;;;;;;
1974;[507] O^NIONS R. K. (1974);samp. SNS717;;ICELAND / ICELAND;SNAEFELLSNES PENINSULA;64.8;-23.5;64.8;-23.5;;;OUTCROP;;;SUBAERIAL;VOLCANIC ROCK;ICELANDITE;;;;;;;;;;WHOLE ROCK;;;;;;;;;;;;;;;;;;;;;;;;;;;;;;;;;;;;;;;;;;;;;;;;;;;;;;;;;;;;;;;;;;;;;;;;;;;;;;;;;;;;;;55;XRF;;;470;XRF;;;;;;;;;;;;;;;;;;;;;;;;;;;;;;;;;;;;;;;;;;;;;;;;;;;;;;;;;;;;0.70332;0.34;;;;;;;;;;;;;;;;;;;;;;;;;;;;;;;;;;;;
1981;[592] SHIMIZU H. (1981);samp. E-51;7186;GALAPAGOS ISLANDS / RABIDA (JERVIS);;-0.4;-90.67;-0.4;-90.67;;;OUTCROP;;;SUBAERIAL;VOLCANIC ROCK;ICELANDITE, PIGEONITE;;;;;;;;;;WHOLE ROCK;;;;;;;;;;;;;;;;;;;;;;;;;;;;;;;;;;;;;;;;;;;;;;;;;;;;;;;;;;;;;;;;;;;;;;;;;;;;;;;;;;;;;;;;;;;;;;;;;;;;;;;;;;;;;;;;;37.1;MS_ID;;;88.5;;54.9;MS_ID;;;13.7;MS_ID;;;4.08;14.94;;13.73;;6.96;;5.63;0.776;;;;;;;;;;;;;;;;;;;;;;;;;;;;;;;;;;;;;;;;;;;;;;;;;;;;;
1981;[592] SHIMIZU H. (1981);samp. E-70;7099;GALAPAGOS ISLANDS / PINZON (DUNCAN);;-0.7;-90.7;-0.7;-90.7;;;OUTCROP;;;SUBAERIAL;VOLCANIC ROCK;ICELANDITE;;;;;;;;;;WHOLE ROCK;;;;;;;;;;;;;;;;;;;;;;;;;;;;;;;;;;;;;;;;;;;;;;;;;;;;;;;;;;;;;;;;;;;;;;;;;;;;;;;;;;;;;;;;;;;;;;;;;;;;;;;;;;;;;;;;;38.1;MS_ID;;;88.5;;54.5;MS_ID;;;14.24;MS_ID;;;3.99;15.07;;13.8;;7.25;;6.46;0.906;;;;;;;;;;;;;;;;;;;;;;;;;;;;;;;;;;;;;;;;;;;;;;;;;;;;;
1981;[592] SHIMIZU H. (1981);samp. E-71;;GALAPAGOS ISLANDS / PINZON (DUNCAN);;-0.7;-90.7;-0.7;-90.7;;;OUTCROP;;;SUBAERIAL;VOLCANIC ROCK;ICELANDITE;;;;;;;;;;WHOLE ROCK;;;;;;;;;;;;;;;;;;;;;;;;;;;;;;;;;;;;;;;;;;;;;;;;;;;;;;;;;;;;;;;;;;;;;;;;;;;;;;;;;;;;;;;;;;;;;;;;;;;;;;;;;;;;;;;;;41.8;MS_ID;;;97.6;;59.8;MS_ID;;;14.77;MS_ID;;;4.2;15.96;;15.49;;8.08;;6.83;0.92;;;;;;;;;;;;;;;;;;;;;;;;;;;;;;;;;;;;;;;;;;;;;;;;;;;;;
1981;[592] SHIMIZU H. (1981);samp. E-49;;GALAPAGOS ISLANDS / RABIDA (JERVIS);;-0.4;-90.67;-0.4;-90.67;;;OUTCROP;;;SUBAERIAL;VOLCANIC ROCK;ICELANDITE;;;;;;;;;;WHOLE ROCK;;;;;;;;;;;;;;;;;;;;;;;;;;;;;;;;;;;;;;;;;;;;;;;;;;;;;;;;;;;;;;;;;;;;;;;;;;;;;;;;;;;;;;;;;;;;;;;;;;;;;;;;;;;;;;;;;34.9;MS_ID;;;85.9;;47.6;MS_ID;;;11.45;MS_ID;;;3.28;11.07;;10.6;;5.65;;5.15;0.792;;;;;;;;;;;;;;;;;;;;;;;;;;;;;;;;;;;;;;;;;;;;;;;;;;;;;
1981;[592] SHIMIZU H. (1981);samp. E-50;10507;GALAPAGOS ISLANDS / RABIDA (JERVIS);;-0.4;-90.67;-0.4;-90.67;;;OUTCROP;;;SUBAERIAL;VOLCANIC ROCK;ICELANDITE;PORPHYRITIC;;;;;;;;;WHOLE ROCK;;;;;;;;;;;;;;;;;;;;;;;;;;;;;;;;;;;;;;;;;;;;;;;;;;;;;;;;;;;;;;;;;;;;;;;;;;;;;;;;;;;;;;;;;;;;;;;;;;;;;;;;;;;;;;;;;44.1;MS_ID;;;91.1;;52.2;MS_ID;;;12.27;MS_ID;;;3.33;12.42;;11.7;;6.31;;5.65;0.8;;;;;;;;;;;;;;;;;;;;;;;;;;;;;;;;;;;;;;;;;;;;;;;;;;;;;
1998;[604] RIGHTER K. (1998);samp. DG39;6832;GALAPAGOS ISLANDS / ISABELA (ALBEMARLE) / ALCEDO;;-0.41;-91.03;-0.41;-91.03;;;OUTCROP;;;SUBAERIAL;VOLCANIC ROCK;ICELANDITE;;;;;;;;;;WHOLE ROCK;;;;;;;;;;;;;;;;;;;;;;;;;;;;;;;;;;;;;;;;;;;;;;;;;;;;;;;;;;;;;;;;;;;;;;;;;;;;;;;;;;;;;;;;;;;;;;;;;;;;;;;;;;;;;;;;;;;;;;;;;;;;;;;;;;;;;;;;;;;610;TIMS_N_ID;615;TIMS_N_ID;;;;;;;;;;;;;;;;;;;;;;;;;;;;;;;;;;;;;;;;;;;;;;
1980;[615] BAITIS H. W. (1980);samp. DH-17B;;GALAPAGOS ISLANDS / PINZON (DUNCAN);NORTHERN CALDERA;-0.7;-90.7;-0.7;-90.7;;;OUTCROP;;;SUBAERIAL;VOLCANIC ROCK;ICELANDITE;;;;;;;;;;WHOLE ROCK;;;;;;53.48;2.13;15.24;;;;3.81;;6.94;8.14;4.11;0.17;;;1.01;XRF;;;;;;;3.44;0.31;;;;;;0.58;;;;;;;;;;;;;;;;;;;27.7;INAA;;;;;;;88;INAA;;;;29.5;INAA;;;36;XRF;;;;;;;;;;;;;;18;XRF;;;261;XRF;;;;;;;323;XRF;;;;;;;;;;150;INAA;;;25.7;INAA;;;62;;;;;;9.6;INAA;;;2.77;;1.63;;;;;4.5;0.72;8.4;1.73;;;;;;;;;;3.59;;;;;;;;;;;;;;;;;;;;;;;;;;;;;;;;;;;;;;;;;
1980;[615] BAITIS H. W. (1980);samp. DH-8G;;GALAPAGOS ISLANDS / PINZON (DUNCAN) / MAIN SHIELD / R2 FLOW;MAIN SHIELD;-0.7;-90.7;-0.7;-90.7;;;OUTCROP;;;SUBAERIAL;VOLCANIC ROCK;ICELANDITE;;AA;;;;;;;;WHOLE ROCK;;;;;;51.02;2.86;13.9;;;;8.17;;5.03;7.97;4.34;0.22;;;1.13;XRF;;;;;;;3.7;0.58;;;;;;1.07;;;;;;;;;;;;;;;;;;;28.2;INAA;;;;;;;15;INAA;;;;33;INAA;;;13;XRF;;;;;;;;;;;;;;21;XRF;;;296;XRF;;;;;;;344;XRF;;;;;;;;;;160;INAA;;;25.9;INAA;;;61;;;;;;10.1;INAA;;;3.19;;1.77;;;;;4.8;0.77;8.1;2.13;;;;;;;;;;3;;;;;;;;;;;;;;;;;;;;;;;;;;;;;;;;;;;;;;;;;
1980;[615] BAITIS H. W. (1980);samp. DH-6J;;GALAPAGOS ISLANDS / PINZON (DUNCAN) / MAIN SHIELD / R3 FLOW;MAIN SHIELD;-0.7;-90.7;-0.7;-90.7;;;OUTCROP;;;SUBAERIAL;VOLCANIC ROCK;ICELANDITE;;PAHOEHOE;;;;;;;;WHOLE ROCK;;;;;;54.7;2.06;14.97;;;;2.71;;7.79;7.96;4.01;0.21;;;1.08;XRF;;;;;;;3.87;0.31;;;;;;0.45;;;;;;;;;;;;;;;;;;;26;INAA;;;;;;;71;INAA;;;;32;INAA;;;42;XRF;;;;;;;;;;;;;;23;XRF;;;270;XRF;;;;;;;396;XRF;;;;;;;;;;170;INAA;;;27.1;INAA;;;63;;;;;;10.6;INAA;;;2.75;;1.82;;;;;5.3;0.8;9;1.99;;;;;;;;;;3.36;;;;;;;;;;;;;;;;;;;;;;;;;;;;;;;;;;;;;;;;;
1980;[615] BAITIS H. W. (1980);samp. DH-8V;;GALAPAGOS ISLANDS / PINZON (DUNCAN) / MAIN SHIELD / R5 FLOW;MAIN SHIELD;-0.7;-90.7;-0.7;-90.7;;;OUTCROP;;;SUBAERIAL;VOLCANIC ROCK;ICELANDITE;APHANITIC;AA;;;;;;;;WHOLE ROCK;;;;;;53.44;2.49;14.04;;;;5.1;;7.12;7.17;3.45;0.22;;;1.08;XRF;;;;;;;3.95;0.71;;;;;;1.02;;;;;;;;;;;;;;;;;;;25.1;INAA;;;;;;;7.2;INAA;;;;30.3;INAA;;;;;;;;;;;;;;;;;;26;XRF;;;282;XRF;;;;;;;453;XRF;;;;;;;;;;215;INAA;;;34;INAA;;;84;;;;;;12.8;INAA;;;3.65;;2.23;;;;;6.2;0.83;10.7;2.67;;;;;;;;;;4.09;;;;;;;;;;;;;;;;;;;;;;;;;;;;;;;;;;;;;;;;;
1980;[615] BAITIS H. W. (1980);samp. DH-8X;;GALAPAGOS ISLANDS / PINZON (DUNCAN) / MAIN SHIELD / R6 FLOW;MAIN SHIELD;-0.7;-90.7;-0.7;-90.7;;;OUTCROP;;;SUBAERIAL;VOLCANIC ROCK;ICELANDITE;;PAHOEHOE;;;;;;;;WHOLE ROCK;;;;;;58.83;1.29;15.72;;;;2.27;;4.91;5.57;2.65;0.14;;;1.49;XRF;;;;;;;4.51;0.31;;;;;;2.55;;;;;;;;;;;;;;;;;;;13.9;INAA;;;;;;;10.3;INAA;;;;16.9;INAA;;;;;;;;;;;;;;;;;;29;XRF;;;258;XRF;;;;;;;433;XRF;;;;;;;;;;230;INAA;;;30.5;INAA;;;74;;;;;;8.8;INAA;;;2.46;;1.54;;;;;4.81;0.8;10.7;2.02;;;;;;;;;;5.46;;;;;;;;;;;;;;;;;;;;;;;;;;;;;;;;;;;;;;;;;
1974;[616] SWANSON F. J. (1974);samp. 8H;;GALAPAGOS ISLANDS / PINZON;PINZON;-0.7;-90.7;-0.7;-90.7;;;OUTCROP;;;SUBAERIAL;VOLCANIC ROCK;ICELANDITE;;;;;;;;;;WHOLE ROCK;;;;;;54.85;2.21;14.45;;;11.75;;;;6.86;3.19;0.21;;;1.38;XRF;;;;;;;3.85;0.66;;;;;;;;;;;;;;;;;;;;;;;;;;;;;;;;;;;;;;;;;;;;;;;;;;;;;;;;;;;;;;;;;;;;;;;;;;;;;;;;;;;;;;;;;;;;;;;;;;;;;;;;;;;;;;;;;;;;;;;;;;;;;;;;;;;;;;;;;;;;;;;;;;;;;;;;;;;;;;;
1969;[618] MCBIRNEY A. R. (1969);samp. 51;;GALAPAGOS ISLANDS / RABIDA (JERVIS);EASTERN SIDE OF CRATER;-0.4;-90.67;-0.4;-90.67;;;OUTCROP;;;SUBAERIAL;VOLCANIC ROCK;ICELANDITE, PIGEONITE;;;;;;;;;;WHOLE ROCK;;;;;;49.5;3.65;14.38;;;;5.51;;8.23;8;3.8;0.23;;;0.97;NOT;;;;;;;4.38;0.75;;0.63;0.24;;;;;;;;;;;;;;;;;;;;;;;;;;;;;;;;;;;;;;;;;;;;;;;;;;;;;;;;;;;;;;;;;;;;;;;;;;;;;;;;;;;;;;;;;;;;;;;;;;;;;;;;;;;;;;;;;;;;;;;;;;;;;;;;;;;;;;;;;;;;;;;;;;;;;;;;;;;;
1969;[618] MCBIRNEY A. R. (1969);samp. 70;;GALAPAGOS ISLANDS / PINZON (DUNCAN);NORTHERN CALDERA;-0.7;-90.7;-0.7;-90.7;;;OUTCROP;;;SUBAERIAL;VOLCANIC ROCK;ICELANDITE;;;;;;;;;;WHOLE ROCK;;;;;;54.76;2.8;14.37;;;;4.43;;7.18;6.67;2.7;0.24;;;1.38;NOT;;;;;;;4.57;0.69;;0.79;0.2;;;;;;;;;;;;;;;;;;;;;;;;;;;;;;;;;;;;;;;;;;;;;;;;;;;;;;;;;;;;;;;;;;;;;;;;;;;;;;;;;;;;;;;;;;;;;;;;;;;;;;;;;;;;;;;;;;;;;;;;;;;;;;;;;;;;;;;;;;;;;;;;;;;;;;;;;;;;
1969;[618] MCBIRNEY A. R. (1969);samp. 71;;GALAPAGOS ISLANDS / PINZON (DUNCAN);EASTERN CALDERA;-0.7;-90.7;-0.7;-90.7;;;OUTCROP;;;SUBAERIAL;VOLCANIC ROCK;ICELANDITE;;;;;;;;;;WHOLE ROCK;;;;;;56.34;1.93;14.02;;;;3.31;;8.73;6.54;2.71;0.17;;;1.33;NOT;;;;;;;4.54;0.65;;0.64;0.18;;;;;;;;;;;;;;;;;;;;;;23;AES;21.6;INAA;98;AES;;;17;AES;;;1600;27;AES;24;INAA;14;AES;;;54;AES;;;;;;;;;;;;;;250;AES;266;XRF;70;AES;;;570;AES;538;XRF;37;;;;;;1.4;285;AES;280;XRF;55;AES;47;INAA;;;;;;;13.6;INAA;;;3.4;;;;;;;;;11.4;;;;;;;;;;;;;;;;;;;;;;;;;;;;;;;;;;;;;;;;;;;;;;;;;;;;
1969;[618] MCBIRNEY A. R. (1969);samp. 49;;GALAPAGOS ISLANDS / RABIDA (JERVIS);DOME NEAR CENTER OF ISLAND;-0.4;-90.67;-0.4;-90.67;;;OUTCROP;;;SUBAERIAL;VOLCANIC ROCK;ICELANDITE;;BLOCKY LAVA;;;;;;;;WHOLE ROCK;;;;;;59.64;1.74;14.61;;;;4.28;;3.88;4.68;2.1;0.14;;;1.96;NOT;;;;;;;4.24;0.47;;1.67;0.29;;;;;;;;;;;;;;;;;;;;;;16;AES;16;INAA;98;AES;;;10;AES;;;1150;18;AES;20.8;INAA;10;AES;;;33;AES;;;;;;;;;;;;;;235;AES;245;XRF;41;AES;;;480;AES;551;XRF;34;;;;;;1.1;300;AES;300;XRF;39;INAA;;;;;;;;;9.7;INAA;;;2.7;;;;;;;;;12.4;;;;;;;;;;;;;;;;;;;;;;;;;;;;;;;;;;;;;;;;;;;;;;;;;;;;
1969;[618] MCBIRNEY A. R. (1969);samp. 50;;GALAPAGOS ISLANDS / RABIDA (JERVIS);LOWER SOUTHERN SLOPE OF DOME;-0.4;-90.67;-0.4;-90.67;;;OUTCROP;;;SUBAERIAL;VOLCANIC ROCK;ICELANDITE;PORPHYRITIC;;;;;;;;;WHOLE ROCK;;;;;;59.39;1.91;14.32;;;;2.6;;5.41;5.12;2.13;0.17;;;2.4;NOT;;;;;;;4.44;0.51;;1.68;0.18;;;;;;;;;;;;;;;;;;;;;;;;;;;;;;;;;;;;;;;;;;;;;;;;;;;;;;;;;;;;;;;;;;;;;;;;;;;;;;;;;;;;;;;;;;;;;;;;;;;;;;;;;;;;;;;;;;;;;;;;;;;;;;;;;;;;;;;;;;;;;;;;;;;;;;;;;;;;
1995;[627] GEIST D. J. (1995);samp. DG18;;GALAPAGOS ISLANDS / ISABELA (ALBEMARLE) / ALCEDO;;-0.41;-91.03;-0.41;-91.03;;;OUTCROP;;;SUBAERIAL;VOLCANIC ROCK;ICELANDITE;;TEPHRA;;;;;;;;WHOLE ROCK;;;;;;53.2;2.01;15.18;;;10.55;;;;7.88;3.96;0.16;;;1.12;XRF;;;;;;;3.87;0.29;;;;;;1.64;;;;;;;;;;;;;;;;;;;;;;;;;;;;;;;;;;;;31;INAA;;;;;;;;;;;;;;31;XRF;;;246;XRF;;;48;XRF;;;352;INAA;;;33;;;;;;;135;XRF;;;24.3;INAA;;;54.2;;30.9;INAA;;;7.62;INAA;;;2.2;8.09;1.25;;;;;3.87;0.59;7.3;1.9;;;;;;;;;;2.9;0.9;;;;;;;;;;;;;;;;;;;;;;;;;;;;6.4;;;;;;;;;;;;
1995;[627] GEIST D. J. (1995);samp. DG38;;GALAPAGOS ISLANDS / ISABELA (ALBEMARLE) / ALCEDO;;-0.41;-91.03;-0.41;-91.03;;;OUTCROP;;;SUBAERIAL;VOLCANIC ROCK;ICELANDITE;;;;;;;;;;WHOLE ROCK;;;;;;50.88;3.14;12.34;;;15.35;;;;7.59;3.86;0.26;;;1.13;XRF;;;;;;;3.69;1.5;;;;;;0.17;;;;;;;;;;;;;;;;;;;;;;;;;;;;;;;;;;;;6;INAA;;;;;;;;;;;;;;24;XRF;;;359;XRF;;;83;XRF;;;386;INAA;;;39;;;;;;;201;XRF;;;38.1;INAA;;;93.2;;63.2;INAA;;;16.22;INAA;;;5.33;17.05;2.45;;;;;6.11;0.9;8.5;2.4;;;;;;;;;;3.1;1;;;;;;;;;;;;;;;;;;;;;;;;;;;;;;;;;;;;;;;;
1995;[627] GEIST D. J. (1995);samp. DG39;6832;GALAPAGOS ISLANDS / ISABELA (ALBEMARLE) / ALCEDO;;-0.41;-91.03;-0.41;-91.03;;;OUTCROP;;;SUBAERIAL;VOLCANIC ROCK;ICELANDITE;;;;;;;;;;WHOLE ROCK;;;;;;53.78;2.76;12.9;;;13.77;;;;6.76;3.29;0.22;;;1.11;XRF;;;;;;;3.81;0.53;;;;;;;;;;;;;;;;;;;;;;;;;;;;;;;;;;;;;;;;;;12;INAA;;;;;;;;;;;;;;30;XRF;;;328;XRF;;;70;XRF;;;521;INAA;;;47;;;;;;;183;XRF;;;33.4;INAA;;;78.3;;48.2;INAA;;;11.9;INAA;;;3.8;12.34;1.87;;;;;5.62;;11;2.6;;;;;;;;;;3.4;1.1;;;;;;;;;;;;;;;;;;;;;;;;;;;;5.9;;;;;;;;;;;;
1995;[627] GEIST D. J. (1995);samp. H22;;GALAPAGOS ISLANDS / ISABELA (ALBEMARLE) / ALCEDO;;-0.41;-91.03;-0.41;-91.03;;;OUTCROP;;;SUBAERIAL;VOLCANIC ROCK;ICELANDITE;;;;;;;;;;WHOLE ROCK;;;;;;57.4;1.97;13.4;;;13.2;;;;5.57;2.01;0.31;;;1.43;XRF;;;;;;;4.75;0.87;;;;;;;;;;;;;;;;;;;;;;;;;31;INAA;;;;;;;80;INAA;;;;;;;;;;;;;;;;;;;;;;;;;;;380;XRF;;;24;XRF;;;165;INAA;;;17;;;;;;;70;XRF;;;64;INAA;;;135;;68;INAA;;;17.9;INAA;;;3.29;16.7;0.85;;;;;2.13;0.31;4;0.9;;;;;;;;;;0.8;0.3;;;;;;;;;;;;;;;;;;;;;;;;;;;;;;;;;;;;;;;;
1977;[750] IMSLAND P. (1977);samp. 17;;BOUVET / BOUVET;WESTWIND STRANDA;-54.43;3.4;-54.43;3.4;;;OUTCROP;;;SUBAERIAL;VOLCANIC ROCK;ICELANDITE;GLOMEROPORPHYRITIC;TRACHYTIC;;;;;;;ALTERATION OF GROUNDMASS TO SMECTITE;WHOLE ROCK;;;;;;60.05;1.11;15;;;;3.82;;5.46;3.98;1.05;0.25;;;2.89;XRF;;;;;;;5.1;0.28;1.01;;;;;;;;;;;;;;;;;;;;;;;;;;;;;;;;15;AES;;;;;;;;;;;;1;AES;;;89;AES;;;;;;58;XRF;;;328;XRF;;;75;XRF;;;598;XRF;;;;;;;;;;;;;;;;;;;;;;;;;;;;;;;;;;;;;;;;;;;;;;;;;;;;;;;;;;;;;;;;;;;;;;;;;;;;;;;;;;;;;;;;;
1977;[750] IMSLAND P. (1977);samp. 18;;BOUVET / BOUVET;LARSÖYA;-54.43;3.4;-54.43;3.4;;;OUTCROP;;;SUBAERIAL;VOLCANIC ROCK;ICELANDITE;GLOMEROPORPHYRITIC;TRACHYTIC;;;;;;;;WHOLE ROCK;;;;;;60.61;1.15;15.16;;;;1.43;;7.79;4.14;1.02;0.26;;;2.92;XRF;;;;;;;5.02;0.3;0.12;;;;;;;;;;;;;;;;;;;;;;;;;;;;;;;;20;AES;;;;;;;;;;;;6;AES;;;93;AES;;;;;;47;XRF;;;341;XRF;;;71;XRF;;;570;XRF;;;;;;;;;;;;;;;;;;;;;;;;;;;;;;;;;;;;;;;;;;;;;;;;;;;;;;;;;;;;;;;;;;;;;;;;;;;;;;;;;;;;;;;;;
1977;[750] IMSLAND P. (1977);samp. 19;;BOUVET / BOUVET;LARSÖYA;-54.43;3.4;-54.43;3.4;;;OUTCROP;;;SUBAERIAL;VOLCANIC ROCK;ICELANDITE;;"TRACHYTIC; GLASS IN MATRIX";;;;;;;ALTERATION OF GROUNDMASS TO SMECTITE;WHOLE ROCK;;;;;;59.52;1.14;14.82;;;;2.55;;6.62;4.04;0.98;0.22;;;2.97;XRF;;;;;;;4.64;0.29;1.86;;;;;;;;;;;;;;;;;;;;;;;;;;;;4;AES;;;18;AES;;;;;;;;;;;;2;AES;;;94;AES;;;;;;56;XRF;;;312;XRF;;;73;XRF;;;578;XRF;;;;;;;;;;;;;;;;;;;;;;;;;;;;;;;;;;;;;;;;;;;;;;;;;;;;;;;;;;;;;;;;;;;;;;;;;;;;;;;;;;;;;;;;;
1977;[750] IMSLAND P. (1977);samp. 19;;BOUVET / BOUVET;LARSÖYA;-54.43;3.4;-54.43;3.4;;;OUTCROP;;;SUBAERIAL;VOLCANIC ROCK;ICELANDITE;;"TRACHYTIC; GLASS IN MATRIX";;;;;;;ALTERATION OF GROUNDMASS TO SMECTITE;MINERAL / COMPONENT (INCL. GROUNDMASS);PLAGIOCLASE;11;PHENOCRYST;;PRIMARY;60.41;0.05;23.98;;;;;0.41;;6.85;0.02;;;;0.7;EMP (EPMA);;;;;;;7.36;;;;;;;;;;;;;;;;;;;;;;;;;;;;;;;;;;;;;;;;;;;;;;;;;;;;;;;;;;;;;;;;;;;;;;;;;;;;;;;;;;;;;;;;;;;;;;;;;;;;;;;;;;;;;;;;;;;;;;;;;;;;;;;;;;;;;;;;;;;;;;;;;;;;;;;;63.4;32.6;;;4;;;;
1977;[750] IMSLAND P. (1977);samp. 19;;BOUVET / BOUVET;LARSÖYA;-54.43;3.4;-54.43;3.4;;;OUTCROP;;;SUBAERIAL;VOLCANIC ROCK;ICELANDITE;;"TRACHYTIC; GLASS IN MATRIX";;;;;;;ALTERATION OF GROUNDMASS TO SMECTITE;MINERAL / COMPONENT (INCL. GROUNDMASS);PLAGIOCLASE;13;;;PRIMARY;61.84;0.02;23.04;0.02;;;;0.44;;5.25;0.03;;;;0.97;EMP (EPMA);;;;;;;7.44;;;;;;;;;;;;;;;;;;;;;;;;;;;;;;;;;;;;;;;;;;;;;;;;;;;;;;;;;;;;;;;;;;;;;;;;;;;;;;;;;;;;;;;;;;;;;;;;;;;;;;;;;;;;;;;;;;;;;;;;;;;;;;;;;;;;;;;;;;;;;;;;;;;;;;;;67.8;26.4;;;5.8;;;;
1977;[750] IMSLAND P. (1977);samp. 19;;BOUVET / BOUVET;LARSÖYA;-54.43;3.4;-54.43;3.4;;;OUTCROP;;;SUBAERIAL;VOLCANIC ROCK;ICELANDITE;;"TRACHYTIC; GLASS IN MATRIX";;;;;;;ALTERATION OF GROUNDMASS TO SMECTITE;MINERAL / COMPONENT (INCL. GROUNDMASS);PLAGIOCLASE;28;MICROCRYST;;PRIMARY;63.34;0.16;20.79;;;;;1.29;;3.64;0.04;0.04;;;1.86;EMP (EPMA);;;;;;;8.07;0.03;;;;;;;;;;;;;;;;;;;;;;;;;;;;;;;;;;;;;;;;;;;;;;;;;;;;;;;;;;;;;;;;;;;;;;;;;;;;;;;;;;;;;;;;;;;;;;;;;;;;;;;;;;;;;;;;;;;;;;;;;;;;;;;;;;;;;;;;;;;;;;;;;;;;;;;71.4;17.8;;;10.8;;;;
1977;[750] IMSLAND P. (1977);samp. 18;;BOUVET / BOUVET;LARSÖYA;-54.43;3.4;-54.43;3.4;;;OUTCROP;;;SUBAERIAL;VOLCANIC ROCK;ICELANDITE;GLOMEROPORPHYRITIC;TRACHYTIC;;;;;;;;MINERAL / COMPONENT (INCL. GROUNDMASS);CLINOPYROXENE;33;MICROPHENOCRYST;;PRIMARY;51.53;0.72;1.27;;;;;15.53;;17.68;12.01;0.65;;;0.02;EMP (EPMA);;;;;;;0.36;0.04;;;;;;;;;;;;;;;;;;;;;;;;;;;;;;;;;;;;;;;;;;;;;;;;;;;;;;;;;;;;;;;;;;;;;;;;;;;;;;;;;;;;;;;;;;;;;;;;;;;;;;;;;;;;;;;;;;;;;;;;;;;;;;;;;;;;;;;;;;;;;;;;;;;;;;;;;;;;;;;
1977;[750] IMSLAND P. (1977);samp. 19;;BOUVET / BOUVET;LARSÖYA;-54.43;3.4;-54.43;3.4;;;OUTCROP;;;SUBAERIAL;VOLCANIC ROCK;ICELANDITE;;"TRACHYTIC; GLASS IN MATRIX";;;;;;;ALTERATION OF GROUNDMASS TO SMECTITE;MINERAL / COMPONENT (INCL. GROUNDMASS);CLINOPYROXENE;29;MICROPHENOCRYST;;PRIMARY;50.32;0.55;0.96;;;;;18.61;;18.24;9.05;0.66;;;0.01;EMP (EPMA);;;;;;;0.34;0.03;;;;;;;;;;;;;;;;;;;;;;;;;;;;;;;;;;;;;;;;;;;;;;;;;;;;;;;;;;;;;;;;;;;;;;;;;;;;;;;;;;;;;;;;;;;;;;;;;;;;;;;;;;;;;;;;;;;;;;;;;;;;;;;;;;;;;;;;;;;;;;;;;;;;;;;;;;;;;;;
1977;[750] IMSLAND P. (1977);samp. 19;;BOUVET / BOUVET;LARSÖYA;-54.43;3.4;-54.43;3.4;;;OUTCROP;;;SUBAERIAL;VOLCANIC ROCK;ICELANDITE;;"TRACHYTIC; GLASS IN MATRIX";;;;;;;ALTERATION OF GROUNDMASS TO SMECTITE;MINERAL / COMPONENT (INCL. GROUNDMASS);SPINEL;18;PHENOCRYST;;PRIMARY;0.14;23.39;1.71;0.02;;;21.09;70.56;51.56;;1.18;0.9;;;;;;;;;;;;0.02;;;;;;;;;;;;;;;;;;;;;;;;;;;;;;;;;;;;;;;;;;;;;;;;;;;;;;;;;;;;;;;;;;;;;;;;;;;;;;;;;;;;;;;;;;;;;;;;;;;;;;;;;;;;;;;;;;;;;;;;;;;;;;;;;;;;;;;;;;;;;;;;;;;;;;;;;;31.12;;68.88;;;
1977;[750] IMSLAND P. (1977);samp. 18;;BOUVET / BOUVET;LARSÖYA;-54.43;3.4;-54.43;3.4;;;OUTCROP;;;SUBAERIAL;VOLCANIC ROCK;ICELANDITE;GLOMEROPORPHYRITIC;TRACHYTIC;;;;;;;;MINERAL / COMPONENT (INCL. GROUNDMASS);SPINEL;21;PHENOCRYST;;PRIMARY;0.13;23.38;1.2;;;;21.83;71.52;51.85;;0.58;0.86;;;;;;;;;;;;;;;;;;;;;;;;;;;;;;;;;;;;;;;;;;;;;;;;;;;;;;;;;;;;;;;;;;;;;;;;;;;;;;;;;;;;;;;;;;;;;;;;;;;;;;;;;;;;;;;;;;;;;;;;;;;;;;;;;;;;;;;;;;;;;;;;;;;;;;;;;;;;;;;;;;;;;;31.85;;68.15;;;
1977;[750] IMSLAND P. (1977);samp. 18;;BOUVET / BOUVET;LARSÖYA;-54.43;3.4;-54.43;3.4;;;OUTCROP;;;SUBAERIAL;VOLCANIC ROCK;ICELANDITE;GLOMEROPORPHYRITIC;TRACHYTIC;;;;;;;;MINERAL / COMPONENT (INCL. GROUNDMASS);OLIVINE;34;PHENOCRYST;;PRIMARY;30.91;0.05;0.02;;;;;53.1;;;13.17;1.75;;;;;;;;;;;;;;;;;;;;;;;;;;;;;;;;;;;;;;;;;;;;;;;;;;;;;;;;;;;;;;;;;;;;;;;;;;;;;;;;;;;;;;;;;;;;;;;;;;;;;;;;;;;;;;;;;;;;;;;;;;;;;;;;;;;;;;;;;;;;;;;;;;;;;;;;;;;;;;;;;;;;;30.7;;;;;;
1977;[750] IMSLAND P. (1977);samp. 19;;BOUVET / BOUVET;LARSÖYA;-54.43;3.4;-54.43;3.4;;;OUTCROP;;;SUBAERIAL;VOLCANIC ROCK;ICELANDITE;;"TRACHYTIC; GLASS IN MATRIX";;;;;;;ALTERATION OF GROUNDMASS TO SMECTITE;MINERAL / COMPONENT (INCL. GROUNDMASS);OLIVINE;36;PHENOCRYST;;PRIMARY;32.9;0.08;0.03;0.02;;;0.02;52.64;0.4;;12.75;1.69;;;;;;;;;;;;0.03;;;;;;;;;;;;;;;;;;;;;;;;;;;;;;;;;;;;;;;;;;;;;;;;;;;;;;;;;;;;;;;;;;;;;;;;;;;;;;;;;;;;;;;;;;;;;;;;;;;;;;;;;;;;;;;;;;;;;;;;;;;;;;;;;;;;;;;;;;;;;;;;;;;;;;;;;30.2;;;;;;
1982;[1055] GIRSON I. L. (1982);samp. 945;19803;ICELAND / ICELAND;ICELAND RESEARCH DRILLING PROJECT BOREHOLE, WEST OF REYDARFJOERDUR, SUBAERIAL CLIFF SECTION;65.02;-14.3;65.02;-14.3;1042;1042;OUTCROP;;;SUBAERIAL;VOLCANIC ROCK;ICELANDITE;;;;;CENOZOIC;;;;;WHOLE ROCK;;;;;;;;;;;;;;;;;;;;;;;;;;;;;;;;;;;;;;;;;;;;;;;;;;;;;;;;;;;;;;8;AAS;;;;;;;;3;AAS;;;15;AAS;;;138;AAS;;;;;;68;XRF;;;259;XRF;;;71;XRF;;;384;XRF;;;42;;;;;;;;;;;;;;;;;;;;;;;;;;;;;;;;;;;;;;;;;;;;;;;;;;;;;;;;;;;;;;;;;;;;;;;;;;;;;;;;;;;;;;