Year;CITATION;SAMPLE NAME;UNIQUE_ID;LOCATION;LOCATION COMMENT;LATITUDE (MIN.);LONGITUDE (MIN.);LATITUDE (MAX.);LONGITUDE (MAX.);ELEVATION (MIN.);ELEVATION (MAX.);SAMPLING TECHNIQUE;DRILLING DEPTH (MIN.);DRILLING DEPTH (MAX.);LAND/SEA (SAMPLING);ROCK TYPE;ROCK NAME;ROCK TEXTURE;SAMPLE COMMENT;AGE (MIN.);AGE (MAX.);GEOLOGICAL AGE;GEOLOGICAL AGE PREFIX;ERUPTION YEAR;ALTERATION;ALTERATION TYPE;TYPE OF MATERIAL;MINERAL / COMPONENT;SPOT (MINERAL);CRYSTAL;RIM / CORE (MINERAL GRAINS);PRIMARY/SECONDARY;SIO2(WT%);TIO2(WT%);AL2O3(WT%);CR2O3(WT%);V2O3(WT%);FE2O3T(WT%);FE2O3(WT%);FEOT(WT%);FEO(WT%);CAO(WT%);MGO(WT%);MNO(WT%);BAO(WT%);NIO(WT%);K2O(WT%);;;;;;;;NA2O(WT%);P2O5(WT%);H2O(WT%);H2OP(WT%);H2OM(WT%);CO2(WT%);F(WT%);LOI(WT%);K(WT%);;;;HE(CCMSTP/G);BE(PPM);F(PPM);;;;NE22(CCMSTP/G);S(PPM);CL(PPM);AR36(CCMSTP/G);AR40(MOL/G): altern. values or methods;;;;SC(PPM): altern. values or methods;;;;V(PPM): altern. values or methods;;;;CR(PPM): altern. values or methods;;;;MN(PPM);CO(PPM): altern. values or methods;;;;NI(PPM): altern. values or methods;;;;CU(PPM): altern. values or methods;;;;ZN(PPM): altern. values or methods;;;;GA(PPM);GE(PPM);AS(PPM);RB(PPM): altern. values or methods;;;;SR(PPM): altern. values or methods;;;;Y(PPM): altern. values or methods;;;;ZR(PPM): altern. values or methods;;;;NB(PPM);MO(PPM);CD(PPM);SN(PPM);SB(PPM);TE(PPM);CS(PPM);BA(PPM): altern. values or methods;;;;LA(PPM): altern. values or methods;;;;CE(PPM);PR(PPM);ND(PPM): altern. values or methods;;;;SM(PPM): altern. values or methods;;;;EU(PPM);GD(PPM);TB(PPM);DY(PPM);HO(PPM);ER(PPM);TM(PPM);YB(PPM);LU(PPM);HF(PPM);TA(PPM);W(PPM);RE(PPT): altern. values or methods;;;;AU(PPB);TL(PPM);PB(PPM);BI(PPM);TH(PPM);U(PPM);ND143_ND144;SM147_ND144;SR87_SR86;RB87_SR86;PB206_PB204;PB207_PB204;PB208_PB204;PB208_PB206;HE3_HE4(R/R(A));AR38_AR36;AR40_AR36;KR78_KR84;KR80_KR84;KR82_KR84;KR83_KR84;KR86_KR84;XE124_XE132;XE126_XE132;XE128_XE132;XE129_XE132;XE130_XE132;XE131_XE132;XE134_XE132;XE136_XE132;TH230_TH232_ACT;U238_TH232_ACT;D18O(PER MIL);D18O(VS SMOW);D18O(VS VSMOW);D34S(VS CDT);DD(VS VSMOW);ALBITE(MOL%);ANORTHITE(MOL%);FORSTERITE(MOL%);MAGNETITE(MOL%);ORTHOCLASE(MOL%);ULVOSPINEL(MOL%);AGE(KA);AGE(MA);
QUERY - BY - PETROGRAPHY: -  - - - VOLCANIC - ROCKS - - - ICELANDIT.../ - - - SAMPLE - CRITERIA - (COMBINED - WITH - OR): - - - MINERAL - / - COMPONENT: - CLINOPYROXENE - / - GLASS - / - OLIVINE - / - PLAGIOCLASE - / - PYROXENE - / - SPINEL - / - ZIRCON - - - SAMPLE - NAME: - 1 - / - 1.1.42 - / - 108.1 - / - 115.1 - / - 142.2 - / - 151.2 - / - 154.1 - / - 17 - / - 18 - / - 183.1 - / - 184.2 - / - 185.5 - / - 19 - / - 197.1 - / - 198.1 - / - 2 - / - 200.1 - / - 210.2 - / - 220.7A - / - 3 - / - 4 - / - 49 - / - 5 - / - 50 - / - 51 - / - 63 - / - 70 - / - 71 - / - 87-181 - / - 87-189 - / - 87-190 - / - 87-212 - / - 87-214 - / - 8H - / - 945 - / - 958 - / - A1 - / - A47 - / - A52 - / - A60 - / - A61 - / - AS12 - / - AS28 - / - AS28A - / - AS71G - / - ASRLS - / - AU37661 - / - BI - / - C2 - / - D13 - / - D14 - / - D15 - / - D16 - / - D17 - / - D-28 - / - D-31A - / - D-91 - / - DD88-4 - / - DG18 - / - DG38 - / - DG39 - / - DH-17B - / - DH-6J - / - DH-8G - / - DH-8V - / - DH-8X - / - DOM30 - / - E3 - / - E-49 - / - E-50 - / - E-51 - / - E7 - / - E-70 - / - E-71 - / - EM503 - / - F1-101 - / - F1-118 - / - F1-148 - / - F1-333 - / - F1-38 - / - F2 - / - F-21 - / - F3-12471 - / - FNAN1 - / - FNAN2 - / - H^70-16 - / - H-1 - / - H22 - / - H70-14 - / - H7OT - / - HAA2 - / - HRN5 - / - I53 - / - I-ICE - / - JR03-1 - / - JR04-49 - / - JR04-59B - / - K-218 - / - KER226 - / - KK - 35 - / - KK - 46 - / - KK - 47 - / - KK - 48 - / - KK - 49 - / - KK - 50 - / - KK - 51 - / - KK - 52 - / - KK - 53 - / - KK - 54 - / - KK - 72 - / - KK - 74 - / - KK - 75 - / - KK - 78 - / - KK - 81 - / - KK - 84 - / - KK - 86 - / - KK - 87A - / - KK - 90 - / - KK26 - / - KR46 - / - KR86 - / - KR90 - / - LJ2 - / - MC-3B - / - MI-2 - / - N-25 - / - NL-2 - / - NT12 - / - NT13 - / - OW-109C - / - OW-110A - / - OW-110E - / - OW-111 - / - OW-112 - / - OW-114 - / - OW-12 - / - OW18G - / - OW-18G - / - OW-214 - / - OW-214B - / - OW-215 - / - OW26 - / - OW-26 - / - OW32B - / - OW-32B - / - OW-4 - / - OW46 - / - OW-46 - / - OW-51 - / - OW-83B - / - OW85 - / - OW-85 - / - OW-90 - / - P443 - / - PG96-11C - / - PG96-37 - / - PG96-40 - / - SCB95 - / - SMG032 - / - SNS14 - / - SNS717 - / - T-1 - / - T-11 - / - T50A - / - T-81A - / - TORT81-A - / - W2 - / - WD-21 - / - WD-304 - / - WD-320 - / - WD-335 - / - WD-342 - / - WD-354 - / - WD-50 - / - WD-65 - - - SAMPLING - TECHNIQUE: - DRILL - HOLE - / - OUTCROP - - - DRILLING - DEPTH - (MIN.): - 29.9;630;682;835;891;905;1077;1079;1091;1154;1158;1165;1229;1297 - - - DRILLING - DEPTH - (MAX.): - 29.9;630;682;835;891;905;1077;1079;1091;1154;1158;1165;1229;1297 - - - ROCK - TYPE: - VOLCANIC - ROCK - - - ELEVATION - (MIN.): - 415;417;431;459;462;630;725;750;770;800;820;1010;1042;1131 - - - ELEVATION - (MAX.): - 415;417;431;459;462;630;725;750;770;800;820;1010;1042;1131 - - - LAND/SEA - (SAMPLING): - SUBAERIAL - - - ROCK - NAME: - ICELANDITE - / - ICELANDITE; - PIGEONITE - - - TYPE - OF - MATERIAL: - VOLCANIC - GLASS - / - MINERAL - / - COMPONENT - (INCL. - GROUNDMASS) - / - WHOLE - ROCK - - - CRYSTAL: - GROUNDMASS - / - MICROCRYST - / - MICROPHENOCRYST - / - PHENOCRYST - - - RIM - / - CORE - (MINERAL - GRAINS): - CORE - / - RIM - ;;;;;;;;;;;;;;;;;;;;;;;;;;;;;;;;;;;;;;;;;;;;;;;;;;;;;;;;;;;;;;;;;;;;;;;;;;;;;;;;;;;;;;;;;;;;;;;;;;;;;;;;;;;;;;;;;;;;;;;;;;;;;;;;;;;;;;;;;;;;;;;;;;;;;;;;;;;;;;;;;;