Year;CITATION;SAMPLE NAME;UNIQUE_ID;LOCATION;LOCATION COMMENT;LATITUDE (MIN.);LONGITUDE (MIN.);LATITUDE (MAX.);LONGITUDE (MAX.);ELEVATION (MIN.);ELEVATION (MAX.);SAMPLING TECHNIQUE;DRILLING DEPTH (MIN.);DRILLING DEPTH (MAX.);LAND/SEA (SAMPLING);ROCK TYPE;ROCK NAME;ROCK TEXTURE;SAMPLE COMMENT;AGE (MIN.);AGE (MAX.);GEOLOGICAL AGE;GEOLOGICAL AGE PREFIX;ERUPTION YEAR;ALTERATION;ALTERATION TYPE;TYPE OF MATERIAL;MINERAL / COMPONENT;SPOT (MINERAL);CRYSTAL;RIM / CORE (MINERAL GRAINS);PRIMARY/SECONDARY;SIO2(WT%);TIO2(WT%);AL2O3(WT%);CR2O3(WT%);V2O3(WT%);FE2O3T(WT%);FE2O3(WT%);FEOT(WT%);FEO(WT%);CAO(WT%);MGO(WT%);MNO(WT%);BAO(WT%);NIO(WT%);K2O(WT%);;;;;;;;NA2O(WT%);P2O5(WT%);H2O(WT%);H2OP(WT%);H2OM(WT%);CO2(WT%);F(WT%);LOI(WT%);K(WT%);;;;HE(CCMSTP/G);BE(PPM);F(PPM);;;;NE22(CCMSTP/G);S(PPM);CL(PPM);AR36(CCMSTP/G);AR40(MOL/G): altern. values or methods;;;;SC(PPM): altern. values or methods;;;;V(PPM): altern. values or methods;;;;CR(PPM): altern. values or methods;;;;MN(PPM);CO(PPM): altern. values or methods;;;;NI(PPM): altern. values or methods;;;;CU(PPM): altern. values or methods;;;;ZN(PPM): altern. values or methods;;;;GA(PPM);GE(PPM);AS(PPM);RB(PPM): altern. values or methods;;;;SR(PPM): altern. values or methods;;;;Y(PPM): altern. values or methods;;;;ZR(PPM): altern. values or methods;;;;NB(PPM);MO(PPM);CD(PPM);SN(PPM);SB(PPM);TE(PPM);CS(PPM);BA(PPM): altern. values or methods;;;;LA(PPM): altern. values or methods;;;;CE(PPM);PR(PPM);ND(PPM): altern. values or methods;;;;SM(PPM): altern. values or methods;;;;EU(PPM);GD(PPM);TB(PPM);DY(PPM);HO(PPM);ER(PPM);TM(PPM);YB(PPM);LU(PPM);HF(PPM);TA(PPM);W(PPM);RE(PPT): altern. values or methods;;;;AU(PPB);TL(PPM);PB(PPM);BI(PPM);TH(PPM);U(PPM);ND143_ND144;SM147_ND144;SR87_SR86;RB87_SR86;PB206_PB204;PB207_PB204;PB208_PB204;PB208_PB206;HE3_HE4(R/R(A));AR38_AR36;AR40_AR36;KR78_KR84;KR80_KR84;KR82_KR84;KR83_KR84;KR86_KR84;XE124_XE132;XE126_XE132;XE128_XE132;XE129_XE132;XE130_XE132;XE131_XE132;XE134_XE132;XE136_XE132;TH230_TH232_ACT;U238_TH232_ACT;D18O(PER MIL);D18O(VS SMOW);D18O(VS VSMOW);D34S(VS CDT);DD(VS VSMOW);ALBITE(MOL%);ANORTHITE(MOL%);FORSTERITE(MOL%);MAGNETITE(MOL%);ORTHOCLASE(MOL%);ULVOSPINEL(MOL%);AGE(KA);AGE(MA);
1988;[14165] ZBINDEN E. A. (1988);samp. OW46;272771;HAWAIIAN ISLANDS / OAHU / WAIANAE / SHIELD STAGE / KAMEILE^UNU MEMBER;MAUNA KUWALE;21.46;-158.11;21.46;-158.11;;;OUTCROP;;;SUBAERIAL;VOLCANIC ROCK;ICELANDITE;;;;;PLIOCENE;;;;;WHOLE ROCK;;;;;;58.6;1.52;14.8;;;;0.87;;5.77;5.75;4.89;0.12;;;2.34;XRF;;;;;;;3.61;0.33;;1.13;0.66;0.04;;;;;;;;;;;;;;;;;;;;;;;;;;;;;;;;;;;;;;;;;;;;;;;;;;;;;;;;;;;;;;;;;;;;;;;;;;;;;;;;;;;;;;;;;;;;;;;;;;;;;;;;;;;;;;;;;;;;;;;;;;;;;;;;;;;;;;;;;;;;;;;;;;;;;;;;;;;
1988;[14165] ZBINDEN E. A. (1988);samp. OW85;272761;HAWAIIAN ISLANDS / OAHU / WAIANAE / SHIELD STAGE / KAMEILE^UNU MEMBER;MAUNA KUWALE;21.462;-158.154;21.462;-158.154;;;OUTCROP;;;SUBAERIAL;VOLCANIC ROCK;ICELANDITE;;;;;PLIOCENE;;;;;WHOLE ROCK;;;;;;58.53;1.29;14.06;;;;0.81;;5.42;5.72;5.81;0.12;;;2.58;XRF;;;;;;;3.4;0.19;;1.18;0.84;0.13;;;;;;;;;;;;;;;;;;;;;;;;;;;;;;;;;;;;;;;;;;;;;;;;;;;;;;;;;;;;;;;;;;;;;;;;;;;;;;;;;;;;;;;;;;;;;;;;;;;;;;;;;;;;;;;;;;;;;;;;;;;;;;;;;;;;;;;;;;;;;;;;;;;;;;;;;;;
1988;[19616] EWART A. (1988);samp. EM503;;AUSTRALIA / TASMAN OROGEN / NEW SOUTH WALES;CANOBOLAS;-33.33;148.7;-33.33;148.7;;;OUTCROP;;;SUBAERIAL;VOLCANIC ROCK;ICELANDITE;;;;;CENOZOIC;;;;;WHOLE ROCK;;;;;;;;;;;;;;;;;;;;;;;;;;;;;;;;;;;;;;;;;;;;;;;;;;;;;;;;;;;;;;;;;;;;;;;;;;;;;;;;;;;;;;38.1;XRF;;;424;XRF;;;;;;;;;;;;;;;;;;;;;;;;;;;;34;NAA;;;7.9;NAA;;;;;;;;;;;;;;;;;;;;;;;;;0.512577;;0.70517;;18.377;15.588;38.471;;;;;;;;;;;;;;;;;;;;;;;;;;;;;;;;;
2015;[19680] MANCINI A. (2015);samp. A1;;ICELAND / ICELAND;LUDENT RIM;65.5788;-16.8132;65.5788;-16.8132;462;462;OUTCROP;;;SUBAERIAL;VOLCANIC ROCK;ICELANDITE;;"BASALTIC; SCORIA";9000;9000;HOLOCENE;;;;;WHOLE ROCK;;;;;;54.2103953715527;1.3061297728189;15.3029529671221;;;11.8443133156315;;;;8.83540699849352;4.78780698932083;0.186303786613739;;;0.566924425932132;XRF;;;;;;;2.93779035558117;0.214349517931937;;;;;;;;;;;;;;;;;;;;;;;;;29.0721032985026;Q_ICPMS_LA;;;241.520024646381;Q_ICPMS_LA;;;14.2970715380435;Q_ICPMS_LA;;;;50.6120223175553;Q_ICPMS_LA;;;48.8632815125858;Q_ICPMS_LA;;;152.270155429042;Q_ICPMS_LA;;;86.144440771712;Q_ICPMS_LA;;;16.6851939697619;3.21976666666667;1.07688666666667;10.8836300810685;Q_ICPMS_LA;;;145.877220638432;Q_ICPMS_LA;;;31.0067137699074;Q_ICPMS_LA;;;174.019545631809;Q_ICPMS_LA;;;13.8758297451456;3.32824987518704;;4.48654445829477;0.229103;1.75526666666667;0.131927723666407;126.56505574084;Q_ICPMS_LA;;;15.645946042886;Q_ICPMS_LA;;;36.7159511100278;4.67341673176231;20.0721443172151;Q_ICPMS_LA;;;4.5224229250833;Q_ICPMS_LA;;;1.71341510328894;5.55887599777417;0.908833208319602;5.70331612779182;1.11418715437758;2.94149367457857;0.495757448330099;3.68240478880011;0.496764218286038;4.08739999050725;0.803489057666754;0.378196866746473;;;;;;0.042609;1.2107923027372;0.048678101295019;1.47721036252331;0.454124036157875;;;;;;;;;;;;;;;;;;;;;;;;;;;;;;;;;;;;;;;;
2015;[19680] MANCINI A. (2015);samp. A60;;ICELAND / ICELAND;LUDENT RIM;65.5769;-16.8053;65.5769;-16.8053;431;431;OUTCROP;;;SUBAERIAL;VOLCANIC ROCK;ICELANDITE;;"BASALTIC; SCORIA";9000;9000;HOLOCENE;;;;;WHOLE ROCK;;;;;;56.6462442986509;1.28158923752604;15.4162620674014;;;10.8517940457499;;;;7.88654835892494;3.88396926572597;0.176909573180065;;;0.737793333603225;XRF;;;;;;;3.43566432459921;0.273405704005555;;;;;;;;;;;;;;;;;;;;;;;;;27.5709579530721;Q_ICPMS_LA;;;183.931120746294;Q_ICPMS_LA;;;40.9357834575377;Q_ICPMS_LA;;;;35.6808708436838;Q_ICPMS_LA;;;60.275718234416;Q_ICPMS_LA;;;77.9114566303413;Q_ICPMS_LA;;;65.952052452774;Q_ICPMS_LA;;;13.9094320063867;4.43655942022358;1.29543333333333;9.14228535183448;Q_ICPMS_LA;;;128.955995057483;Q_ICPMS_LA;;;30.4642358574268;Q_ICPMS_LA;;;175.851690586697;Q_ICPMS_LA;;;13.2496686837739;3.33902707581786;;3.11247280500724;0.268383333333333;1.86343333333333;0.135297774771424;113.872472374374;Q_ICPMS_LA;;;14.8377598745206;Q_ICPMS_LA;;;33.6770754107474;4.36495865804999;18.8556439010214;Q_ICPMS_LA;;;3.99545591990906;Q_ICPMS_LA;;;1.34225763661937;4.91023836260086;0.790844870934577;5.66514724830004;1.1877748169711;3.2667095369101;0.391756882134636;3.11859298288679;0.545278192218231;4.35369690248979;0.884103096619937;0.702930075076721;;;;;;0.110853;0.781844289890034;0.0422106666666667;1.17071850324677;0.377000355208887;;;;;;;;;;;;;;;;;;;;;;;;;;;;;;;;;;;;;;;;
2015;[19680] MANCINI A. (2015);samp. A61;;ICELAND / ICELAND;LUDENT RIM;65.5771;-16.8035;65.5771;-16.8035;459;459;OUTCROP;;;SUBAERIAL;VOLCANIC ROCK;ICELANDITE;;"BASALTIC; SCORIA";9000;9000;HOLOCENE;;;;;WHOLE ROCK;;;;;;55.9527916182083;1.29024040494232;15.3657722701858;;;10.9204986950509;;;;7.82151941366894;3.9077568199339;0.178171289433462;;;0.711684195433659;XRF;;;;;;;3.33921023342713;0.274263670251509;;;;;;;;;;;;;;;;;;;;;;;;;25.0889453349661;Q_ICPMS_LA;;;193.900406245512;Q_ICPMS_LA;;;13.5185333333333;Q_ICPMS_LA;;;;40.8470586046455;Q_ICPMS_LA;;;45.9144839490237;Q_ICPMS_LA;;;87.6832039247344;Q_ICPMS_LA;;;86.9036631686561;Q_ICPMS_LA;;;20.267922471763;3.4462;1.3696;14.5063721015453;Q_ICPMS_LA;;;173.441991818695;Q_ICPMS_LA;;;44.4409381676828;Q_ICPMS_LA;;;275.933595806494;Q_ICPMS_LA;;;20.0467764594189;2.00863569219374;;4.48761186415233;0.285203333333333;1.94338666666667;0.191539326524733;165.558155915631;Q_ICPMS_LA;;;23.4423140212781;Q_ICPMS_LA;;;54.2337060112582;6.60228797001771;29.9809611941312;Q_ICPMS_LA;;;6.63733201392315;Q_ICPMS_LA;;;2.03272877596377;7.08977475720362;1.40433424050841;7.68656581071309;1.63558172797819;5.38228986637841;0.717108450233158;5.00644248164832;0.732117349141999;6.46498223025306;1.32531616034301;0.752065646986091;;;;;;0.095010060539559;1.02514907739104;0.068798;1.88879446863814;0.630875055603018;;;;;;;;;;;;;;;;;;;;;;;;;;;;;;;;;;;;;;;;
2015;[19680] MANCINI A. (2015);samp. A47;;ICELAND / ICELAND;HEIDASPORDUR RIDGE;65.6048;-16.8019;65.6048;-16.8019;415;415;OUTCROP;;;SUBAERIAL;VOLCANIC ROCK;ICELANDITE;;"BASALTIC; SCORIA";9000;9000;HOLOCENE;;;;;WHOLE ROCK;;;;;;55.1753264083656;1.19569392487066;15.4623589593097;;;10.942716577189;;;;8.99290877727345;4.96525512646544;0.180463079723312;;;0.61095321962194;XRF;;;;;;;3.10315843233718;0.252043407434794;;;;;;;;;;;;;;;;;;;;;;;;;30.5331557315271;Q_ICPMS_LA;;;194.918121918291;Q_ICPMS_LA;;;31.9083036930281;Q_ICPMS_LA;;;;45.5539551981652;Q_ICPMS_LA;;;74.1345809729058;Q_ICPMS_LA;;;107.293033680143;Q_ICPMS_LA;;;78.8812867115658;Q_ICPMS_LA;;;17.2896059678617;3.54933333333333;1.4271;11.5433583804019;Q_ICPMS_LA;;;157.068114525564;Q_ICPMS_LA;;;39.5724836663115;Q_ICPMS_LA;;;225.393431671734;Q_ICPMS_LA;;;16.7412794662856;3.26961410140466;;6.30401822965912;0.273933333333333;1.95083333333333;0.124702593077947;137.82780071024;Q_ICPMS_LA;;;18.7360584763763;Q_ICPMS_LA;;;42.624155317965;5.27287558949952;24.0041552243224;Q_ICPMS_LA;;;6.51973174655448;Q_ICPMS_LA;;;1.76623963204832;6.40677422462841;1.22842919359473;7.42715782077089;1.42690386512988;3.99212004067365;0.682173562049078;4.47055783037327;0.592724391068814;5.65175528707691;1.02138370759031;0.530092634055004;;;;;;0.0790053333333333;1.18648665535857;0.029571;1.57510170010459;0.506148996530142;;;;;;;;;;;;;;;;;;;;;;;;;;;;;;;;;;;;;;;;
2015;[19680] MANCINI A. (2015);samp. A52;;ICELAND / ICELAND;HEIDASPORDUR RIDGE;65.6158;-16.8025;65.6158;-16.8025;417;417;OUTCROP;;;SUBAERIAL;VOLCANIC ROCK;ICELANDITE;;"BASALTIC; SCORIA";9000;9000;HOLOCENE;;;;;WHOLE ROCK;;;;;;55.0956619508046;1.2605737224322;15.0309931657368;;;10.6948992441217;;;;7.6723191458017;3.86662510264268;0.170806740519736;;;0.719186275872572;XRF;;;;;;;3.23034502246097;0.240727628451792;;;;;;;;;;;;;;;;;;;;;;;;;28.0220883385502;Q_ICPMS_LA;;;193.038576951458;Q_ICPMS_LA;;;13.3535394788774;Q_ICPMS_LA;;;;37.1291742883427;Q_ICPMS_LA;;;36.8175834473793;Q_ICPMS_LA;;;111.05899165792;Q_ICPMS_LA;;;81.1004393671827;Q_ICPMS_LA;;;17.5877799146111;3.2384;1.55300697969141;12.9371196922032;Q_ICPMS_LA;;;154.009331999659;Q_ICPMS_LA;;;37.4166207086147;Q_ICPMS_LA;;;228.920791639005;Q_ICPMS_LA;;;15.9463523004021;2.88996392117666;;2.68006161437534;0.197834333333333;1.59825936954856;0.196136889308006;159.650369027012;Q_ICPMS_LA;;;19.2263878156789;Q_ICPMS_LA;;;44.1285340513464;5.61374350530684;22.4269608374685;Q_ICPMS_LA;;;5.5881321295999;Q_ICPMS_LA;;;1.80112485428887;5.77762709971832;0.973152424786094;6.65251081577872;1.18460070353871;3.40663604985179;0.533082066661749;4.68512948932632;0.521370306547756;5.57139945487411;1.17992924118146;0.818952470014038;;;;;;0.0697119766428998;1.40393636424072;0.0385203333333333;1.61775945667379;0.606810627186994;;;;;;;;;;;;;;;;;;;;;;;;;;;;;;;;;;;;;;;;
2015;[19680] MANCINI A. (2015);samp. BI;;ICELAND / ICELAND;HEIDARSPORDUR RIDGE;66.17;-18.88;66.17;-18.88;;;OUTCROP;;;SUBAERIAL;VOLCANIC ROCK;ICELANDITE;;BASALTIC;9000;9000;HOLOCENE;;;;;MINERAL / COMPONENT (INCL. GROUNDMASS);PLAGIOCLASE;;;;PRIMARY;55.8;0.0144;26.26;;0;;;0.3367;;10.03;0.0028;;0.0039;;0.1164;EMP (EPMA);;;;;;;5.81;0.0114;;;;;;;;;;;;;;;;;;;;;;;;;;;;;;;;;;;;;;;;;;;;;;;;;;;;;;;;;;;;;;;;;;;;;;;;;;;;;;;;;;;;;;;;;;;;;;;;;;;;;;;;;;;;;;;;;;;;;;;;;;;;;;;;;;;;;;;;;;;;;;;;;;;;;;;;48.5;;;;;;;
2015;[19680] MANCINI A. (2015);samp. BI;;ICELAND / ICELAND;HEIDARSPORDUR RIDGE;66.17;-18.88;66.17;-18.88;;;OUTCROP;;;SUBAERIAL;VOLCANIC ROCK;ICELANDITE;;BASALTIC;9000;9000;HOLOCENE;;;;;MINERAL / COMPONENT (INCL. GROUNDMASS);PLAGIOCLASE;;;;PRIMARY;53.64;0.1169;24.62;;0.004;;;2.66;;11.78;1.73;;0.0096;;0.1187;EMP (EPMA);;;;;;;4.26;0.0197;;;;;;;;;;;;;;;;;;;;;;;;;;;;;;;;;;;;;;;;;;;;;;;;;;;;;;;;;;;;;;;;;;;;;;;;;;;;;;;;;;;;;;;;;;;;;;;;;;;;;;;;;;;;;;;;;;;;;;;;;;;;;;;;;;;;;;;;;;;;;;;;;;;;;;;;60.08;;;;;;;
Download from GEOROC - Geochemical Database;;;;;;;;;;;;;;;;;;;;;;;;;;;;;;;;;;;;;;;;;;;;;;;;;;;;;;;;;;;;;;;;;;;;;;;;;;;;;;;;;;;;;;;;;;;;;;;;;;;;;;;;;;;;;;;;;;;;;;;;;;;;;;;;;;;;;;;;;;;;;;;;;;;;;;;;;;;;;;;;;;;;;;;;;;;;;;;;;;;;;;;;;;;;;;;;;;;;;;;;;;;;;;;;;;;;;;;
Date of Query: Friday;April 11;2025;;;;;;;;;;;;;;;;;;;;;;;;;;;;;;;;;;;;;;;;;;;;;;;;;;;;;;;;;;;;;;;;;;;;;;;;;;;;;;;;;;;;;;;;;;;;;;;;;;;;;;;;;;;;;;;;;;;;;;;;;;;;;;;;;;;;;;;;;;;;;;;;;;;;;;;;;;;;;;;;;;;;;;;;;;;;;;;;;;;;;;;;;;;;;;;;;;;;;;;;;;;;;;;;;;;;;
Please note: There is a List of your Query Criteria at the End of this Sheet.;;;;;;;;;;;;;;;;;;;;;;;;;;;;;;;;;;;;;;;;;;;;;;;;;;;;;;;;;;;;;;;;;;;;;;;;;;;;;;;;;;;;;;;;;;;;;;;;;;;;;;;;;;;;;;;;;;;;;;;;;;;;;;;;;;;;;;;;;;;;;;;;;;;;;;;;;;;;;;;;;;;;;;;;;;;;;;;;;;;;;;;;;;;;;;;;;;;;;;;;;;;;;;;;;;;;;;;
References:;;;;;;;;;;;;;;;;;;;;;;;;;;;;;;;;;;;;;;;;;;;;;;;;;;;;;;;;;;;;;;;;;;;;;;;;;;;;;;;;;;;;;;;;;;;;;;;;;;;;;;;;;;;;;;;;;;;;;;;;;;;;;;;;;;;;;;;;;;;;;;;;;;;;;;;;;;;;;;;;;;;;;;;;;;;;;;;;;;;;;;;;;;;;;;;;;;;;;;;;;;;;;;;;;;;;;;;
[507] O^NIONS R. K., PANKHURST R. J.:   PETROGENETIC SIGNIFICANCE OF ISOTOPE AND TRACE ELEMENT VARIATIONS IN VOLCANIC ROCKS FROM THE MID-ATLANTIC |  J. PETROL. 15    [1974]  603-634  | doi: 10.1093/petrology/15.3.603;;;;;;;;;;;;;;;;;;;;;;;;;;;;;;;;;;;;;;;;;;;;;;;;;;;;;;;;;;;;;;;;;;;;;;;;;;;;;;;;;;;;;;;;;;;;;;;;;;;;;;;;;;;;;;;;;;;;;;;;;;;;;;;;;;;;;;;;;;;;;;;;;;;;;;;;;;;;;;;;;;;;;;;;;;;;;;;;;;;;;;;;;;;;;;;;;;;;;;;;;;;;;;;;;;;;;;;
[592] SHIMIZU H., MASUDA A., MASUI N.:   RARE-EARTH ELEMENT GEOCHEMISTRY OF VOLCANIC AND RELATED ROCKS FROM THE GALAPAGOS ISLANDS |  GEOCHEM. J. 15    [1981]  81-93  | doi: 10.2343/geochemj.15.81;;;;;;;;;;;;;;;;;;;;;;;;;;;;;;;;;;;;;;;;;;;;;;;;;;;;;;;;;;;;;;;;;;;;;;;;;;;;;;;;;;;;;;;;;;;;;;;;;;;;;;;;;;;;;;;;;;;;;;;;;;;;;;;;;;;;;;;;;;;;;;;;;;;;;;;;;;;;;;;;;;;;;;;;;;;;;;;;;;;;;;;;;;;;;;;;;;;;;;;;;;;;;;;;;;;;;;;
[604] RIGHTER K., CHESLEY J. T., GEIST D. J., RUIZ J.:   BEHAVIOR OF RE DURING MAGMA FRACTIONATION: AN EXAMPLE FROM VOLCAN ALCEDO, GALAPAGOS |  J. PETROL. 39    [1998]  785-795  | doi: 10.1093/petroj/39.4.785;;;;;;;;;;;;;;;;;;;;;;;;;;;;;;;;;;;;;;;;;;;;;;;;;;;;;;;;;;;;;;;;;;;;;;;;;;;;;;;;;;;;;;;;;;;;;;;;;;;;;;;;;;;;;;;;;;;;;;;;;;;;;;;;;;;;;;;;;;;;;;;;;;;;;;;;;;;;;;;;;;;;;;;;;;;;;;;;;;;;;;;;;;;;;;;;;;;;;;;;;;;;;;;;;;;;;;;
[615] BAITIS H. W., LINDSTROM M. M.:   GEOLOGY, PETROGRAPHY, AND PETROLOGY OF PINZON ISLAND, GALAPAGOS ARCHIPELAGO |  CONTRIB. MINERAL. PETROL. 72    [1980]  367-386  | doi: 10.1007/BF00371345;;;;;;;;;;;;;;;;;;;;;;;;;;;;;;;;;;;;;;;;;;;;;;;;;;;;;;;;;;;;;;;;;;;;;;;;;;;;;;;;;;;;;;;;;;;;;;;;;;;;;;;;;;;;;;;;;;;;;;;;;;;;;;;;;;;;;;;;;;;;;;;;;;;;;;;;;;;;;;;;;;;;;;;;;;;;;;;;;;;;;;;;;;;;;;;;;;;;;;;;;;;;;;;;;;;;;;;
"[616] SWANSON F. J., BAITIS H. W., LEXA J., DYMOND J.:   GEOLOGY OF SANTIAGO, RABIDA, AND PINZON ISLANDS, GALAPAGOS |  BULL. GEOL. SOC. AM. 85    [1974]  1803-1810  | doi: 10.1130/0016-7606(1974)85<1803:GOSRAP>2.0.CO;2";;;;;;;;;;;;;;;;;;;;;;;;;;;;;;;;;;;;;;;;;;;;;;;;;;;;;;;;;;;;;;;;;;;;;;;;;;;;;;;;;;;;;;;;;;;;;;;;;;;;;;;;;;;;;;;;;;;;;;;;;;;;;;;;;;;;;;;;;;;;;;;;;;;;;;;;;;;;;;;;;;;;;;;;;;;;;;;;;;;;;;;;;;;;;;;;;;;;;;;;;;;;;;;;;;;;;;;
[618] MCBIRNEY A. R., WILLIAMS H. M.:   GEOLOGY AND PETROLOGY OF THE GALAPAGOS ISLANDS |  MEM. GEOL. SOC. AM. 118    [1969]  1-197  | doi: 10.1130/MEM118-p1;;;;;;;;;;;;;;;;;;;;;;;;;;;;;;;;;;;;;;;;;;;;;;;;;;;;;;;;;;;;;;;;;;;;;;;;;;;;;;;;;;;;;;;;;;;;;;;;;;;;;;;;;;;;;;;;;;;;;;;;;;;;;;;;;;;;;;;;;;;;;;;;;;;;;;;;;;;;;;;;;;;;;;;;;;;;;;;;;;;;;;;;;;;;;;;;;;;;;;;;;;;;;;;;;;;;;;;
[627] GEIST D. J., HOWARD K. A., LARSON P. B.:   THE GENERATION OF OCEANIC RHYOLITES BY CRYSTAL FRACTIONATION: THE BASALT-RHYOLITE ASSOCIATION AT VOLCAN ALCEDO, GALAPAGOS ARCHIPELAGO |  J. PETROL. 36    [1995]  965-982  | doi: 10.1093/petrology/36.4.965;;;;;;;;;;;;;;;;;;;;;;;;;;;;;;;;;;;;;;;;;;;;;;;;;;;;;;;;;;;;;;;;;;;;;;;;;;;;;;;;;;;;;;;;;;;;;;;;;;;;;;;;;;;;;;;;;;;;;;;;;;;;;;;;;;;;;;;;;;;;;;;;;;;;;;;;;;;;;;;;;;;;;;;;;;;;;;;;;;;;;;;;;;;;;;;;;;;;;;;;;;;;;;;;;;;;;;;
[750] IMSLAND P., LARSEN J. G., PRESTVIK T., SIGMOND E. M.:   THE GEOLOGY AND PETROLOGY OF BOUVETOEYA, SOUTH ATLANTIC OCEAN |  LITHOS 10    [1977]  213-234  | doi: 10.1016/0024-4937(77)90049-4;;;;;;;;;;;;;;;;;;;;;;;;;;;;;;;;;;;;;;;;;;;;;;;;;;;;;;;;;;;;;;;;;;;;;;;;;;;;;;;;;;;;;;;;;;;;;;;;;;;;;;;;;;;;;;;;;;;;;;;;;;;;;;;;;;;;;;;;;;;;;;;;;;;;;;;;;;;;;;;;;;;;;;;;;;;;;;;;;;;;;;;;;;;;;;;;;;;;;;;;;;;;;;;;;;;;;;;
[1055] GIRSON I. L., KIRKPATRICK R. J., EMMERMANN R., SCHMINCKE H.-U., PRITCHARD R. G., OAKLEY P. J., THORPE R. S., MARRINER G. F.:   THE TRACE ELEMENT COMPOSITION OF THE LAVAS AND DIKES FROM A 3-KM VERTICAL SECTION THROUGH THE LAVA PILE OF EASTERN ICELAND |  J. GEOPHYS. RES. B87    [1982]  6532-6546  | doi: 10.1029/JB087iB08p06532;;;;;;;;;;;;;;;;;;;;;;;;;;;;;;;;;;;;;;;;;;;;;;;;;;;;;;;;;;;;;;;;;;;;;;;;;;;;;;;;;;;;;;;;;;;;;;;;;;;;;;;;;;;;;;;;;;;;;;;;;;;;;;;;;;;;;;;;;;;;;;;;;;;;;;;;;;;;;;;;;;;;;;;;;;;;;;;;;;;;;;;;;;;;;;;;;;;;;;;;;;;;;;;;;;;;;;;
[1056] FLOWER M. F. J., PRITCHARD R. G., BREM G., CANN J. R., DELANEY J., EMMERMANN R., GIRSON I. L., OAKLEY P. J., ROBINSON P. T., SCHMINCKE H.-U.:   CHEMICAL STRATIGRAPHY, ICELAND RESEARCH DRILLING PROJECT, REYDARFJORDUR, EASTERN ICELAND |  J. GEOPHYS. RES. B87    [1982]  6489-6610  | doi: 10.1029/JB087iB08p06489;;;;;;;;;;;;;;;;;;;;;;;;;;;;;;;;;;;;;;;;;;;;;;;;;;;;;;;;;;;;;;;;;;;;;;;;;;;;;;;;;;;;;;;;;;;;;;;;;;;;;;;;;;;;;;;;;;;;;;;;;;;;;;;;;;;;;;;;;;;;;;;;;;;;;;;;;;;;;;;;;;;;;;;;;;;;;;;;;;;;;;;;;;;;;;;;;;;;;;;;;;;;;;;;;;;;;;;
[1061] OSKARSSON N., SIGVALDASON G. E., STEINTHORSSON S.:   A DYNAMIC MODEL OF RIFT ZONE PETROGENESIS AND THE REGIONAL PETROLOGY OF ICELAND |  J. PETROL. 23    [1982]  28-74  | GeoReM-id: 3607 | doi: 10.1093/petrology/23.1.28;;;;;;;;;;;;;;;;;;;;;;;;;;;;;;;;;;;;;;;;;;;;;;;;;;;;;;;;;;;;;;;;;;;;;;;;;;;;;;;;;;;;;;;;;;;;;;;;;;;;;;;;;;;;;;;;;;;;;;;;;;;;;;;;;;;;;;;;;;;;;;;;;;;;;;;;;;;;;;;;;;;;;;;;;;;;;;;;;;;;;;;;;;;;;;;;;;;;;;;;;;;;;;;;;;;;;;;
[1075] WOOD D. A.:   MAJOR AND TRACE ELEMENT VARIATIONS IN THE TERTIARY LAVAS OF EASTERN ICELAND AND THEIR SIGNIFICANCE WITH RESPECT TO THE ICELAND GEOCHEMICAL ANOMALY |  J. PETROL. 19    [1978]  393-436  | doi: 10.1093/petrology/19.3.393;;;;;;;;;;;;;;;;;;;;;;;;;;;;;;;;;;;;;;;;;;;;;;;;;;;;;;;;;;;;;;;;;;;;;;;;;;;;;;;;;;;;;;;;;;;;;;;;;;;;;;;;;;;;;;;;;;;;;;;;;;;;;;;;;;;;;;;;;;;;;;;;;;;;;;;;;;;;;;;;;;;;;;;;;;;;;;;;;;;;;;;;;;;;;;;;;;;;;;;;;;;;;;;;;;;;;;;
[1112] MACDONALD R., MCGARVIE D. W., PINKERTON H., SMITH R. L., PALACZ Z. A.:   PETROGENETIC EVOLUTION OF THE TORFAJOEKULL VOLCANIC COMPLEX, ICELAND: 1. RELATIONSHIP BETWEEN THE MAGMA TYPES |  J. PETROL. 31    [1990]  429-459  | doi: 10.1093/petrology/31.2.429;;;;;;;;;;;;;;;;;;;;;;;;;;;;;;;;;;;;;;;;;;;;;;;;;;;;;;;;;;;;;;;;;;;;;;;;;;;;;;;;;;;;;;;;;;;;;;;;;;;;;;;;;;;;;;;;;;;;;;;;;;;;;;;;;;;;;;;;;;;;;;;;;;;;;;;;;;;;;;;;;;;;;;;;;;;;;;;;;;;;;;;;;;;;;;;;;;;;;;;;;;;;;;;;;;;;;;;
[1120] TORSSANDER P.:   SULFUR ISOTOPE RATIOS OF ICELANDIC LAVA INCRUSTATIONS AND VOLCANIC GASES |  J. VOLCANOL. GEOTHERM. RES. 35    [1988]  227-235  | doi: 10.1016/0377-0273(88)90019-4;;;;;;;;;;;;;;;;;;;;;;;;;;;;;;;;;;;;;;;;;;;;;;;;;;;;;;;;;;;;;;;;;;;;;;;;;;;;;;;;;;;;;;;;;;;;;;;;;;;;;;;;;;;;;;;;;;;;;;;;;;;;;;;;;;;;;;;;;;;;;;;;;;;;;;;;;;;;;;;;;;;;;;;;;;;;;;;;;;;;;;;;;;;;;;;;;;;;;;;;;;;;;;;;;;;;;;;
[1122] SIGVALDASON G. E., OSKARSSON N.:   FLUORINE IN BASALTS FROM ICELAND |  CONTRIB. MINERAL. PETROL. 94    [1986]  263-271  | doi: 10.1007/BF00371435;;;;;;;;;;;;;;;;;;;;;;;;;;;;;;;;;;;;;;;;;;;;;;;;;;;;;;;;;;;;;;;;;;;;;;;;;;;;;;;;;;;;;;;;;;;;;;;;;;;;;;;;;;;;;;;;;;;;;;;;;;;;;;;;;;;;;;;;;;;;;;;;;;;;;;;;;;;;;;;;;;;;;;;;;;;;;;;;;;;;;;;;;;;;;;;;;;;;;;;;;;;;;;;;;;;;;;;
[1123] ZENTILLI M., BROOKS R. R., HELGASON J., RYAN D. E., ZHANG HANFEI:   THE DISTRIBUTION OF AU IN VOLCANIC ROCKS OF EASTERN ICELAND |  CHEM. GEOL. 48    [1985]  17-28  | doi: 10.1016/0009-2541(85)90032-4;;;;;;;;;;;;;;;;;;;;;;;;;;;;;;;;;;;;;;;;;;;;;;;;;;;;;;;;;;;;;;;;;;;;;;;;;;;;;;;;;;;;;;;;;;;;;;;;;;;;;;;;;;;;;;;;;;;;;;;;;;;;;;;;;;;;;;;;;;;;;;;;;;;;;;;;;;;;;;;;;;;;;;;;;;;;;;;;;;;;;;;;;;;;;;;;;;;;;;;;;;;;;;;;;;;;;;;