Year;CITATION;SAMPLE NAME;UNIQUE_ID;LOCATION;LOCATION COMMENT;LATITUDE (MIN.);LONGITUDE (MIN.);LATITUDE (MAX.);LONGITUDE (MAX.);ELEVATION (MIN.);ELEVATION (MAX.);SAMPLING TECHNIQUE;DRILLING DEPTH (MIN.);DRILLING DEPTH (MAX.);LAND/SEA (SAMPLING);ROCK TYPE;ROCK NAME;ROCK TEXTURE;SAMPLE COMMENT;AGE (MIN.);AGE (MAX.);GEOLOGICAL AGE;GEOLOGICAL AGE PREFIX;ERUPTION YEAR;ALTERATION;ALTERATION TYPE;TYPE OF MATERIAL;MINERAL / COMPONENT;SPOT (MINERAL);CRYSTAL;RIM / CORE (MINERAL GRAINS);PRIMARY/SECONDARY;INCLUSION TYPE;SPOT (INCLUSION);MINERAL (INCLUSION);RIM / CORE (INCLUSION);HOSTMINERAL (INCLUSION);HEATING;HEATING TEMPERATURE (?C);SIO2(WT%);TIO2(WT%);ZRO2(WT%);B2O3(WT%);AL2O3(WT%);CR2O3(WT%);LA2O3(WT%);CE2O3(WT%);Y2O3(WT%);V2O3(WT%);NB2O3(WT%);TA2O5(WT%);WO3(WT%);FE2O3T(WT%);FE2O3(WT%);FEOT(WT%);FEO(WT%);CAO(WT%);MGO(WT%);MNO(WT%);BAO(WT%);SRO(WT%);NIO(WT%);ZNO(WT%);CS2O(WT%);RB2O(WT%);K2O(WT%);;;;NA2O(WT%);P2O5(WT%);H2O(WT%);;;;H2OP(WT%);H2OM(WT%);CO2(WT%);C(WT%);F(WT%);CL(WT%);SO2(WT%);SO3(WT%);S(WT%);LOI(WT%);AL(WT%);TI(WT%);FE(WT%);MG(WT%);CA(WT%);K(WT%);NA(WT%);LI(PPM);BE(PPM);B(PPM);C(PPM);F(PPM);NA(PPM);MG(PPM);AL(PPM);P(PPM);S(PPM);CL(PPM);AR40(AT/G);AR40(CCMSTP/G);AR40(MOL/G);AR40(PPB);K(PPM);CA(PPM);SC(PPM);;;;TI(PPM);;;;V(PPM);CR(PPM);MN(PPM);FE(PPM);CO(PPM);NI(PPM);CU(PPM);ZN(PPM);GA(PPM);GE(PPM);AS(PPM);SE(PPM);BR(PPM);RB(PPM): altern. values or methods;;;;SR(PPM): altern. values or methods;;;;Y(PPM): altern. values or methods;;;;ZR(PPM): altern. values or methods;;;;NB(PPM): altern. values or methods;;;;MO(PPM): altern. values or methods;;;;AG(PPM);CD(PPM);IN(PPM);SN(PPM);SB(PPM);TE(PPM);CS(PPM);BA(PPM): altern. values or methods;;;;LA(PPM): altern. values or methods;;;;CE(PPM): altern. values or methods;;;;PR(PPM);ND(PPM): altern. values or methods;;;;SM(PPM): altern. values or methods;;;;EU(PPM);GD(PPM);TB(PPM);DY(PPM);HO(PPM);ER(PPM);TM(PPM);YB(PPM);LU(PPM);HF(PPM);TA(PPM);W(PPM);RE(PPM);AU(PPM);AU(PPB);HG(PPM);HG(PPB);TL(PPM);PB(PPM): altern. values or methods;;;;PB206(PPM);BI(PPM);TH(PPM): altern. values or methods;;;;U(PPM);ND143_ND144;ND143_ND144_INI;EPSILON_ND;EPSILON_ND_INI;SM147_ND144;SR87_SR86;SR87_SR86_INI;EPSILON_SR;EPSILON_SR_INI;RB87_SR86;PB206_PB204;PB206_PB204_INI;PB206_PB207;PB206_PB208;PB207_PB204;PB207_PB204_INI;PB207_PB206;PB208_PB204;PB208_PB204_INI;PB208_PB206;HF176_HF177;HF176_HF177_INI;EPSILON_HF_INI;LU176_HF177;YB176_HF177;AR36_AR39;AR36_AR40;AR37_AR39;AR38_AR39;AR39_AR40;AR40_AR36;AR40_AR39;PB206_U238;PB207_U235;PB208_TH232;TH232_PB204;TH232_U238;U235_PB204;U238_PB204;U238_PB206;D7LI(VS LSVEC);D18O(PER MIL);D18O(VS SMOW);D18O(VS VSMOW);D56FE(VS IRMM-014);D57FE(VS IRMM-014);DD(VS SMOW);ALBITE(MOL%);ANORTHITE(MOL%);CA OLIVINE(MOL%);ENSTATITE(MOL%);FAYALITE(MOL%);FORSTERITE(MOL%);FERROSILITE(MOL%);ORTHOCLASE(MOL%);TEPHROITE(MOL%);ULVOSPINEL(MOL%);WOLLASTONITE(MOL%);AGE(KA): altern. values or methods;;;;AGE(MA): altern. values or methods;;;;;;;;AGE_PB207_PB206(MA);AGE_PB207_U235(MA);AGE_PB206_U238(MA): altern. values or methods;;;;;;AGE_PB208_TH232(MA);
1996;[13884] FERRARI L. (1996);samp. AMT 60;;APENNINIC-MAGHREBIDES CHAIN / APENNINE / TUSCAN VOLCANIC PROVINCE / MONTE AMIATA / BASAL TRACHYDACITIC COMPLEX;QUARANTA;42.8625;11.6241;42.8625;11.6241;;;OUTCROP;;;SUBAERIAL;VOLCANIC ROCK;TRACHYDACITE;;;300000;300000;PLEISTOCENE;;;;;WHOLE ROCK;;;;;;;;;;;;;65.4;0.63;;;16.4;;;;;;;;;;0.53;;2.76;2.87;1.34;0.06;;;;;;;6.22;XRF;;;2.29;0.17;;;;;;;;;;;;;;1.41;;;;;;;;;;;;;;;;;;;;;;;;;;;;;;;;;;;;;;;;;;;;;;;;;;;;;;;;;;;;;;;;;;;;;;;;;;;;;;;;;;;;;;;;;;;;;;;;;;;;;;;;;;;;;;;;;;;;;;;;;;;;;;;;;;;;;;;;;;;;;;;;;;;;;;;;;;;;;;;;;;;;;;;;;;;;;;;;;;;;;;;;;;;;;;;;;;;;;;;;;;;;;;
1996;[13884] FERRARI L. (1996);samp. AMT 54;;APENNINIC-MAGHREBIDES CHAIN / APENNINE / TUSCAN VOLCANIC PROVINCE / MONTE AMIATA / BASAL TRACHYDACITIC COMPLEX;GELATA;42.8481;11.6183;42.8481;11.6183;;;OUTCROP;;;SUBAERIAL;VOLCANIC ROCK;TRACHYDACITE;;;300000;300000;PLEISTOCENE;;;;;WHOLE ROCK;;;;;;;;;;;;;65.9;0.54;;;16.8;;;;;;;;;;0.21;;2.8;2.75;1.23;0.05;;;;;;;6.09;XRF;;;2.13;0.16;;;;;;;;;;;;;;1.32;;;;;;;;;;;;;;;;;;;;;;;;;;;;;;;;;;;;;;;;;;;;;;;;;;;;;;;;;;;;;;;;;;;;;;;;;;;;;;;;;;;;;;;;;;;;;;;;;;;;;;;;;;;;;;;;;;;;;;;;;;;;;;;;;;;;;;;;;;;;;;;;;;;;;;;;;;;;;;;;;;;;;;;;;;;;;;;;;;;;;;;;;;;;;;;;;;;;;;;;;;;;;;
1996;[13884] FERRARI L. (1996);samp. AMT 25;;APENNINIC-MAGHREBIDES CHAIN / APENNINE / TUSCAN VOLCANIC PROVINCE / MONTE AMIATA / BASAL TRACHYDACITIC COMPLEX;GELATA;42.8578;11.6289;42.8578;11.6289;;;OUTCROP;;;SUBAERIAL;VOLCANIC ROCK;TRACHYDACITE;;;300000;300000;PLEISTOCENE;;;;;WHOLE ROCK;;;;;;;;;;;;;66.3;0.55;;;15.4;;;;;;;;;;0.49;;2.68;3.04;1.18;0.05;;;;;;;6.16;XRF;;;2.17;0.16;;;;;;;;;;;;;;1.89;;;;;;;;;;;;;;;;;;;;;;;;;;;;;;;;;;;;;;;;;;;;;;;;;;;;;;;;;;;;;;;;;;;;;;;;;;;;;;;;;;;;;;;;;;;;;;;;;;;;;;;;;;;;;;;;;;;;;;;;;;;;;;;;;;;;;;;;;;;;;;;;;;;;;;;;;;;;;;;;;;;;;;;;;;;;;;;;;;;;;;;;;;;;;;;;;;;;;;;;;;;;;;
1996;[13884] FERRARI L. (1996);samp. AMT 48;;APENNINIC-MAGHREBIDES CHAIN / APENNINE / TUSCAN VOLCANIC PROVINCE / MONTE AMIATA / BASAL TRACHYDACITIC COMPLEX;PIANCAS;42.8603;11.6764;42.8603;11.6764;;;OUTCROP;;;SUBAERIAL;VOLCANIC ROCK;TRACHYDACITE;;;300000;300000;PLEISTOCENE;;;;;WHOLE ROCK;;;;;;;;;;;;;65.7;0.52;;;16.7;;;;;;;;;;0.38;;2.72;2.71;1.27;0.05;;;;;;;5.99;XRF;;;2.12;0.17;;;;;;;;;;;;;;1.72;;;;;;;;;;;;;;;;;;;;;;;;;;;;;;;;;;;;;;;;;;;;;;;;;;;;;;;;;;;;;;;;;;;;;;;;;;;;;;;;;;;;;;;;;;;;;;;;;;;;;;;;;;;;;;;;;;;;;;;;;;;;;;;;;;;;;;;;;;;;;;;;;;;;;;;;;;;;;;;;;;;;;;;;;;;;;;;;;;;;;;;;;;;;;;;;;;;;;;;;;;;;;;
1996;[13884] FERRARI L. (1996);samp. AMT 47;;APENNINIC-MAGHREBIDES CHAIN / APENNINE / TUSCAN VOLCANIC PROVINCE / MONTE AMIATA / BASAL TRACHYDACITIC COMPLEX;PIANCAS;42.8603;11.6764;42.8603;11.6764;;;OUTCROP;;;SUBAERIAL;VOLCANIC ROCK;TRACHYDACITE;;;300000;300000;PLEISTOCENE;;;;;WHOLE ROCK;;;;;;;;;;;;;66.3;0.52;;;16.3;;;;;;;;;;1.11;;2;2.75;1.23;0.05;;;;;;;6.16;XRF;;;2.14;0.18;;;;;;;;;;;;;;1.26;;;;;;;;;;;;;;;;;;;;;;;;;;;;;;;;;;;;;;;;;;;;;;;;;;;;;;;;;;;;;;;;;;;;;;;;;;;;;;;;;;;;;;;;;;;;;;;;;;;;;;;;;;;;;;;;;;;;;;;;;;;;;;;;;;;;;;;;;;;;;;;;;;;;;;;;;;;;;;;;;;;;;;;;;;;;;;;;;;;;;;;;;;;;;;;;;;;;;;;;;;;;;;
1996;[13884] FERRARI L. (1996);samp. AMT 56;;APENNINIC-MAGHREBIDES CHAIN / APENNINE / TUSCAN VOLCANIC PROVINCE / MONTE AMIATA / BASAL TRACHYDACITIC COMPLEX;PIANCAS;42.8508;11.6944;42.8508;11.6944;;;OUTCROP;;;SUBAERIAL;VOLCANIC ROCK;TRACHYDACITE;;;300000;300000;PLEISTOCENE;;;;;WHOLE ROCK;;;;;;;;;;;;;66.9;0.5;;;15.6;;;;;;;;;;0.16;;2.8;2.93;1.27;0.05;;;;;;;6.14;XRF;;;2.18;0.15;;;;;;;;;;;;;;1.28;;;;;;;;;;;;;;;;;;;;;;;;;;;;;;;;;;;;;;;;;;;;;;;;;;;;;;;;;;;;;;;;;;;;;;;;;;;;;;;;;;;;;;;;;;;;;;;;;;;;;;;;;;;;;;;;;;;;;;;;;;;;;;;;;;;;;;;;;;;;;;;;;;;;;;;;;;;;;;;;;;;;;;;;;;;;;;;;;;;;;;;;;;;;;;;;;;;;;;;;;;;;;;
1996;[13884] FERRARI L. (1996);samp. AMT 95;;APENNINIC-MAGHREBIDES CHAIN / APENNINE / TUSCAN VOLCANIC PROVINCE / MONTE AMIATA / BASAL TRACHYDACITIC COMPLEX;AHBADIA;42.9153;11.6575;42.9153;11.6575;;;OUTCROP;;;SUBAERIAL;VOLCANIC ROCK;TRACHYDACITE;;;300000;300000;PLEISTOCENE;;;;;WHOLE ROCK;;;;;;;;;;;;;64.8;0.55;;;17.5;;;;;;;;;;0.19;;2.84;2.54;1.44;0.05;;;;;;;5.9;XRF;;;2.16;0.19;;;;;;;;;;;;;;1.86;;;;;;;;;;;;;;;;;;;;;;;;;;;;;;;;;;;;;;;;;;;;;;;;;;;;;;;;;;;;;;;;;;;;;;;;;;;;;;;;;;;;;;;;;;;;;;;;;;;;;;;;;;;;;;;;;;;;;;;;;;;;;;;;;;;;;;;;;;;;;;;;;;;;;;;;;;;;;;;;;;;;;;;;;;;;;;;;;;;;;;;;;;;;;;;;;;;;;;;;;;;;;;
1996;[13884] FERRARI L. (1996);samp. AMT 32;;APENNINIC-MAGHREBIDES CHAIN / APENNINE / TUSCAN VOLCANIC PROVINCE / MONTE AMIATA / BASAL TRACHYDACITIC COMPLEX;AHBADIA;42.9014;11.6489;42.9014;11.6489;;;OUTCROP;;;SUBAERIAL;VOLCANIC ROCK;TRACHYDACITE;;;300000;300000;PLEISTOCENE;;;;;WHOLE ROCK;;;;;;;;;;;;;67;0.56;;;15.9;;;;;;;;;;0.27;;2.82;3.08;1.13;0.05;;;;;;;6.23;XRF;;;2.15;0.17;;;;;;;;;;;;;;0.68;;;;;;;;;;;;;;;;;;;;;;;;;;;;;;;;;;;;;;;;;;;;;;;;;;;;;;;;;;;;;;;;;;;;;;;;;;;;;;;;;;;;;;;;;;;;;;;;;;;;;;;;;;;;;;;;;;;;;;;;;;;;;;;;;;;;;;;;;;;;;;;;;;;;;;;;;;;;;;;;;;;;;;;;;;;;;;;;;;;;;;;;;;;;;;;;;;;;;;;;;;;;;;
1996;[13884] FERRARI L. (1996);samp. AMT 34;;APENNINIC-MAGHREBIDES CHAIN / APENNINE / TUSCAN VOLCANIC PROVINCE / MONTE AMIATA / BASAL TRACHYDACITIC COMPLEX;AHBADIA;42.9014;11.6489;42.9014;11.6489;;;OUTCROP;;;SUBAERIAL;VOLCANIC ROCK;TRACHYDACITE;;;300000;300000;PLEISTOCENE;;;;;WHOLE ROCK;;;;;;;;;;;;;67.7;0.6;;;15.8;;;;;;;;;;0.05;;2.6;2.91;1.26;0.05;;;;;;;6.21;XRF;;;2.19;0.17;;;;;;;;;;;;;;0.46;;;;;;;;;;;;;;;;;;;;;;;;;;;;;;;;;;;;;;;;;;;;;;;;;;;;;;;;;;;;;;;;;;;;;;;;;;;;;;;;;;;;;;;;;;;;;;;;;;;;;;;;;;;;;;;;;;;;;;;;;;;;;;;;;;;;;;;;;;;;;;;;;;;;;;;;;;;;;;;;;;;;;;;;;;;;;;;;;;;;;;;;;;;;;;;;;;;;;;;;;;;;;;
1996;[13884] FERRARI L. (1996);samp. AMT 78;;APENNINIC-MAGHREBIDES CHAIN / APENNINE / TUSCAN VOLCANIC PROVINCE / MONTE AMIATA / BASAL TRACHYDACITIC COMPLEX;VIVO;42.9;11.6178;42.9;11.6178;;;OUTCROP;;;SUBAERIAL;VOLCANIC ROCK;TRACHYDACITE;;;300000;300000;PLEISTOCENE;;;;;WHOLE ROCK;;;;;;;;;;;;;64;0.57;;;17.8;;;;;;;;;;0.54;;2.7;2.75;1.51;0.05;;;;;;;5.82;XRF;;;2.2;0.16;;;;;;;;;;;;;;1.87;;;;;;;;;;;;;;;;;;;;;;;;;;;;;;;;;;;;;;;;;;;;;;;;;;;;;;;;;;;;;;;;;;;;;;;;;;;;;;;;;;;;;;;;;;;;;;;;;;;;;;;;;;;;;;;;;;;;;;;;;;;;;;;;;;;;;;;;;;;;;;;;;;;;;;;;;;;;;;;;;;;;;;;;;;;;;;;;;;;;;;;;;;;;;;;;;;;;;;;;;;;;;;
1996;[13884] FERRARI L. (1996);samp. AMT 72;;APENNINIC-MAGHREBIDES CHAIN / APENNINE / TUSCAN VOLCANIC PROVINCE / MONTE AMIATA / BASAL TRACHYDACITIC COMPLEX;VIVO;42.9031;11.8167;42.9031;11.8167;;;OUTCROP;;;SUBAERIAL;VOLCANIC ROCK;TRACHYDACITE;;;300000;300000;PLEISTOCENE;;;;;WHOLE ROCK;;;;;;;;;;;;;65.3;0.53;;;17;;;;;;;;;;0.21;;2.8;2.63;1.36;0.05;;;;;;;5.99;XRF;;;2.26;0.17;;;;;;;;;;;;;;1.7;;;;;;;;;;;;;;;;;;;;;;;;;;;;;;;;;;;;;;;;;;;;;;;;;;;;;;;;;;;;;;;;;;;;;;;;;;;;;;;;;;;;;;;;;;;;;;;;;;;;;;;;;;;;;;;;;;;;;;;;;;;;;;;;;;;;;;;;;;;;;;;;;;;;;;;;;;;;;;;;;;;;;;;;;;;;;;;;;;;;;;;;;;;;;;;;;;;;;;;;;;;;;;
1996;[13884] FERRARI L. (1996);samp. AMT 97;;APENNINIC-MAGHREBIDES CHAIN / APENNINE / TUSCAN VOLCANIC PROVINCE / MONTE AMIATA / BASAL TRACHYDACITIC COMPLEX;VIVO;42.9322;11.643;42.9322;11.643;;;OUTCROP;;;SUBAERIAL;VOLCANIC ROCK;TRACHYDACITE;;;300000;300000;PLEISTOCENE;;;;;WHOLE ROCK;;;;;;;;;;;;;66.6;0.5;;;16.1;;;;;;;;;;1.75;;1.64;2.61;1.21;0.04;;;;;;;5.95;XRF;;;2.18;0.15;;;;;;;;;;;;;;1.25;;;;;;;;;;;;;;;;;;;;;;;;;;;;;;;;;;;;;;;;;;;;;;;;;;;;;;;;;;;;;;;;;;;;;;;;;;;;;;;;;;;;;;;;;;;;;;;;;;;;;;;;;;;;;;;;;;;;;;;;;;;;;;;;;;;;;;;;;;;;;;;;;;;;;;;;;;;;;;;;;;;;;;;;;;;;;;;;;;;;;;;;;;;;;;;;;;;;;;;;;;;;;;
1996;[13884] FERRARI L. (1996);samp. AMT 78;;APENNINIC-MAGHREBIDES CHAIN / APENNINE / TUSCAN VOLCANIC PROVINCE / MONTE AMIATA / BASAL TRACHYDACITIC COMPLEX;VIVO;42.9;11.6178;42.9;11.6178;;;OUTCROP;;;SUBAERIAL;VOLCANIC ROCK;TRACHYDACITE;;;300000;300000;PLEISTOCENE;;;;;MINERAL / COMPONENT (INCL. GROUNDMASS);GLASS;;GROUNDMASS;;PRIMARY;;;;;;;;74.5;0.08;;;12.8;0;;;;;;;;;;0.72;;0.61;0;0;0;0.57;0;;;;6.91;EMP (EPMA);;;2.1;0;;;;;;;;;0.11;0.03;;;;;;;;;;;;;;;;;;;;;;;;;;;;;;;;;;;;;;;;;;;;;;;;;;;;;;;;;;;;;;;;;;;;;;;;;;;;;;;;;;;;;;;;;;;;;;;;;;;;;;;;;;;;;;;;;;;;;;;;;;;;;;;;;;;;;;;;;;;;;;;;;;;;;;;;;;;;;;;;;;;;;;;;;;;;;;;;;;;;;;;;;;;;;;;;;;;;;;;;;;;;;;;;;;
1996;[13884] FERRARI L. (1996);samp. AMT 10B;;APENNINIC-MAGHREBIDES CHAIN / APENNINE / TUSCAN VOLCANIC PROVINCE / MONTE AMIATA / BASAL TRACHYDACITIC COMPLEX;LECCIO, CAS. PIANO;42.8939;11.5503;42.8939;11.5503;;;OUTCROP;;;SUBAERIAL;VOLCANIC ROCK;TRACHYDACITE;;;300000;300000;PLEISTOCENE;;;;;MINERAL / COMPONENT (INCL. GROUNDMASS);GLASS;;GROUNDMASS;;PRIMARY;;;;;;;;74.6;0.06;;;12.4;0.03;;;;;;;;;;0.85;;0.87;0.04;0;0;0.24;0;;;;6.7;EMP (EPMA);;;1.92;0;;;;;;;;;0;;;;;;;;;;;;;;;;;;;;;;;0;;;;;;;;;;;;;;;;;;;;;;;;;;;;;;;;;;;;;;;;;;;;;;;;;;;;;;;;;;;;;;;;;;;;;;;;;;;;;;;;;;;;;;;;;;;;;;;;;;;;;;;;;;;;;;;;;;;;;;;;;;;;;;;;;;;;;;;;;;;;;;;;;;;;;;;;;;;;;;;;;;;;;;;;;;;;;;;;;;;;;;;;;;;;
1996;[13884] FERRARI L. (1996);samp. AMT 10B;;APENNINIC-MAGHREBIDES CHAIN / APENNINE / TUSCAN VOLCANIC PROVINCE / MONTE AMIATA / BASAL TRACHYDACITIC COMPLEX;LECCIO, CAS. PIANO;42.8939;11.5503;42.8939;11.5503;;;OUTCROP;;;SUBAERIAL;VOLCANIC ROCK;TRACHYDACITE;;;300000;300000;PLEISTOCENE;;;;;MINERAL / COMPONENT (INCL. GROUNDMASS);GLASS;;GROUNDMASS;;PRIMARY;;;;;;;;74.6;0.2;;;12;0.03;;;;;;;;;;0.92;;0.73;0.06;0.1;0.16;0;0.07;;;;6.68;EMP (EPMA);;;1.92;0;;;;;;;;;0;0;;;;;;;;;;;;;;;;;;;;;;;;;;;;;;;;;;;;;;;;;;;;;;;;;;;;;;;;;;;;;;;;;;;;;;;;;;;;;;;;;;;;;;;;;;;;;;;;;;;;;;;;;;;;;;;;;;;;;;;;;;;;;;;;;;;;;;;;;;;;;;;;;;;;;;;;;;;;;;;;;;;;;;;;;;;;;;;;;;;;;;;;;;;;;;;;;;;;;;;;;;;;;;;;;;
1996;[13884] FERRARI L. (1996);samp. AMT 10B;;APENNINIC-MAGHREBIDES CHAIN / APENNINE / TUSCAN VOLCANIC PROVINCE / MONTE AMIATA / BASAL TRACHYDACITIC COMPLEX;LECCIO, CAS. PIANO;42.8939;11.5503;42.8939;11.5503;;;OUTCROP;;;SUBAERIAL;VOLCANIC ROCK;TRACHYDACITE;;;300000;300000;PLEISTOCENE;;;;;MINERAL / COMPONENT (INCL. GROUNDMASS);GLASS;;GROUNDMASS;;PRIMARY;;;;;;;;74.7;0.14;;;12;0;;;;;;;;;;0.74;;0.8;0.07;0;0;0.26;0;;;;6.86;EMP (EPMA);;;1.99;0;;;;;;;;;0;0;;;;;;;;;;;;;;;;;;;;;;;;;;;;;;;;;;;;;;;;;;;;;;;;;;;;;;;;;;;;;;;;;;;;;;;;;;;;;;;;;;;;;;;;;;;;;;;;;;;;;;;;;;;;;;;;;;;;;;;;;;;;;;;;;;;;;;;;;;;;;;;;;;;;;;;;;;;;;;;;;;;;;;;;;;;;;;;;;;;;;;;;;;;;;;;;;;;;;;;;;;;;;;;;;;
1996;[13884] FERRARI L. (1996);samp. AMT 10B;;APENNINIC-MAGHREBIDES CHAIN / APENNINE / TUSCAN VOLCANIC PROVINCE / MONTE AMIATA / BASAL TRACHYDACITIC COMPLEX;LECCIO, CAS. PIANO;42.8939;11.5503;42.8939;11.5503;;;OUTCROP;;;SUBAERIAL;VOLCANIC ROCK;TRACHYDACITE;;;300000;300000;PLEISTOCENE;;;;;MINERAL / COMPONENT (INCL. GROUNDMASS);GLASS;;GROUNDMASS;;PRIMARY;;;;;;;;75.7;0.21;;;12;0.03;;;;;;;;;;0.93;;0.81;0.08;0.06;0.04;0.46;0;;;;5.83;EMP (EPMA);;;1.33;0;;;;;;;;;0;0;;;;;;;;;;;;;;;;;;;;;;;;;;;;;;;;;;;;;;;;;;;;;;;;;;;;;;;;;;;;;;;;;;;;;;;;;;;;;;;;;;;;;;;;;;;;;;;;;;;;;;;;;;;;;;;;;;;;;;;;;;;;;;;;;;;;;;;;;;;;;;;;;;;;;;;;;;;;;;;;;;;;;;;;;;;;;;;;;;;;;;;;;;;;;;;;;;;;;;;;;;;;;;;;;;
1996;[13884] FERRARI L. (1996);samp. AMT 10B;;APENNINIC-MAGHREBIDES CHAIN / APENNINE / TUSCAN VOLCANIC PROVINCE / MONTE AMIATA / BASAL TRACHYDACITIC COMPLEX;LECCIO, CAS. PIANO;42.8939;11.5503;42.8939;11.5503;;;OUTCROP;;;SUBAERIAL;VOLCANIC ROCK;TRACHYDACITE;;;300000;300000;PLEISTOCENE;;;;;INCLUSION;;;;;;GLASS INCLUSION;;;;BIOTITE;FALSE;;72.9;0.24;;;11.7;0;;;;;;;;;;0.48;;0.6;0.05;0;0.11;0.11;0.07;;;;6.94;EMP (EPMA);;;1.59;0;;;;;;;;;0.35;0;;;;;;;;;;;;;;;;;;;;;;;;;;;;;;;;;;;;;;;;;;;;;;;;;;;;;;;;;;;;;;;;;;;;;;;;;;;;;;;;;;;;;;;;;;;;;;;;;;;;;;;;;;;;;;;;;;;;;;;;;;;;;;;;;;;;;;;;;;;;;;;;;;;;;;;;;;;;;;;;;;;;;;;;;;;;;;;;;;;;;;;;;;;;;;;;;;;;;;;;;;;;;;;;;;
1996;[13884] FERRARI L. (1996);samp. AMT 10B;;APENNINIC-MAGHREBIDES CHAIN / APENNINE / TUSCAN VOLCANIC PROVINCE / MONTE AMIATA / BASAL TRACHYDACITIC COMPLEX;LECCIO, CAS. PIANO;42.8939;11.5503;42.8939;11.5503;;;OUTCROP;;;SUBAERIAL;VOLCANIC ROCK;TRACHYDACITE;;;300000;300000;PLEISTOCENE;;;;;INCLUSION;;;;;;GLASS INCLUSION;;;;ORTHOPYROXENE;FALSE;;73.1;0.09;;;11.8;0.03;;;;;;;;;;0.94;;0.76;0.04;0;0;0.14;0.04;;;;6.5;EMP (EPMA);;;1.79;0;;;;;;;;;0;0;;;;;;;;;;;;;;;;;;;;;;;;;;;;;;;;;;;;;;;;;;;;;;;;;;;;;;;;;;;;;;;;;;;;;;;;;;;;;;;;;;;;;;;;;;;;;;;;;;;;;;;;;;;;;;;;;;;;;;;;;;;;;;;;;;;;;;;;;;;;;;;;;;;;;;;;;;;;;;;;;;;;;;;;;;;;;;;;;;;;;;;;;;;;;;;;;;;;;;;;;;;;;;;;;;
1996;[13884] FERRARI L. (1996);samp. AMT 78;;APENNINIC-MAGHREBIDES CHAIN / APENNINE / TUSCAN VOLCANIC PROVINCE / MONTE AMIATA / BASAL TRACHYDACITIC COMPLEX;VIVO;42.9;11.6178;42.9;11.6178;;;OUTCROP;;;SUBAERIAL;VOLCANIC ROCK;TRACHYDACITE;;;300000;300000;PLEISTOCENE;;;;;INCLUSION;;;;;;GLASS INCLUSION;;;;SANIDINE;FALSE;;73.2;0.15;;;12.4;0;;;;;;;;;;0.83;;0.66;0.03;0;0;0.7;0;;;;6.69;EMP (EPMA);;;1.84;0;;;;;;;;;0.11;0.03;;;;;;;;;;;;;;;;;;;;;;;;;;;;;;;;;;;;;;;;;;;;;;;;;;;;;;;;;;;;;;;;;;;;;;;;;;;;;;;;;;;;;;;;;;;;;;;;;;;;;;;;;;;;;;;;;;;;;;;;;;;;;;;;;;;;;;;;;;;;;;;;;;;;;;;;;;;;;;;;;;;;;;;;;;;;;;;;;;;;;;;;;;;;;;;;;;;;;;;;;;;;;;;;;;
1996;[13884] FERRARI L. (1996);samp. AMT 10B;;APENNINIC-MAGHREBIDES CHAIN / APENNINE / TUSCAN VOLCANIC PROVINCE / MONTE AMIATA / BASAL TRACHYDACITIC COMPLEX;LECCIO, CAS. PIANO;42.8939;11.5503;42.8939;11.5503;;;OUTCROP;;;SUBAERIAL;VOLCANIC ROCK;TRACHYDACITE;;;300000;300000;PLEISTOCENE;;;;;INCLUSION;;;;;;GLASS INCLUSION;;;;BIOTITE;FALSE;;73.6;0.55;;;12.1;0;;;;;;;;;;0.54;;0.72;0.05;0.12;0;0.12;0;;;;6.68;EMP (EPMA);;;1.65;0;;;;;;;;;0.61;0;;;;;;;;;;;;;;;;;;;;;;;;;;;;;;;;;;;;;;;;;;;;;;;;;;;;;;;;;;;;;;;;;;;;;;;;;;;;;;;;;;;;;;;;;;;;;;;;;;;;;;;;;;;;;;;;;;;;;;;;;;;;;;;;;;;;;;;;;;;;;;;;;;;;;;;;;;;;;;;;;;;;;;;;;;;;;;;;;;;;;;;;;;;;;;;;;;;;;;;;;;;;;;;;;;
1996;[13884] FERRARI L. (1996);samp. AMT 78;;APENNINIC-MAGHREBIDES CHAIN / APENNINE / TUSCAN VOLCANIC PROVINCE / MONTE AMIATA / BASAL TRACHYDACITIC COMPLEX;VIVO;42.9;11.6178;42.9;11.6178;;;OUTCROP;;;SUBAERIAL;VOLCANIC ROCK;TRACHYDACITE;;;300000;300000;PLEISTOCENE;;;;;INCLUSION;;;;;;GLASS INCLUSION;;;;ORTHOPYROXENE;FALSE;;74.3;0.02;;;12.1;0;;;;;;;;;;0.93;;0.96;0.04;0;0;0.85;0;;;;5.71;EMP (EPMA);;;2;0.45;;;;;;;;;0;;;;;;;;;;;;;;;;;;;;;;;0;;;;;;;;;;;;;;;;;;;;;;;;;;;;;;;;;;;;;;;;;;;;;;;;;;;;;;;;;;;;;;;;;;;;;;;;;;;;;;;;;;;;;;;;;;;;;;;;;;;;;;;;;;;;;;;;;;;;;;;;;;;;;;;;;;;;;;;;;;;;;;;;;;;;;;;;;;;;;;;;;;;;;;;;;;;;;;;;;;;;;;;;;;;;
1996;[13884] FERRARI L. (1996);samp. AMT 10B;;APENNINIC-MAGHREBIDES CHAIN / APENNINE / TUSCAN VOLCANIC PROVINCE / MONTE AMIATA / BASAL TRACHYDACITIC COMPLEX;LECCIO, CAS. PIANO;42.8939;11.5503;42.8939;11.5503;;;OUTCROP;;;SUBAERIAL;VOLCANIC ROCK;TRACHYDACITE;;;300000;300000;PLEISTOCENE;;;;;INCLUSION;;;;;;GLASS INCLUSION;;;;BIOTITE;FALSE;;75.4;0.25;;;11.9;0.03;;;;;;;;;;0.87;;0.7;0.09;0;;0;0;;;;5.49;EMP (EPMA);;;1.24;0;;;;;;;;;0;0;;;;;;;;;;;;;;;;;;;;;;;;;;;;;;;;;;;;;;;;;;;;;;;;;;;;;;;;;;;;;;;;;;;;;;;;;;;;;;;;;;;;;;;;;;;;;;;;;;;;;;;;;;;;;;;;;;;;;;;;;;;;;;;;;;;;;;;;;;;;;;;;;;;;;;;;;;;;;;;;;;;;;;;;;;;;;;;;;;;;;;;;;;;;;;;;;;;;;;;;;;;;;;;;;;
1996;[13884] FERRARI L. (1996);samp. AMT 10;180395;APENNINIC-MAGHREBIDES CHAIN / APENNINE / TUSCAN VOLCANIC PROVINCE / MONTE AMIATA / BASAL TRACHYDACITIC COMPLEX;LECCIO, CAS. PIANO;42.8939;11.5503;42.8939;11.5503;;;OUTCROP;;;SUBAERIAL;VOLCANIC ROCK;TRACHYDACITE;;;300000;300000;PLEISTOCENE;;;;;WHOLE ROCK;;;;;;;;;;;;;66.7;0.56;;;15.5;;;;;;;;;;0.6;;2.52;2.96;1.19;0.05;;;;;;;6.29;XRF;;;2.28;0.17;;;;;;;;;;;;;;1.12;;;;;;;;;;;;;;;;;;;;;;;;;;;;;;;;;;;;;;;;;;;;;;;;;;;;;;;;;;;;;;;;;;;;;;;;;;;;;;;;;;;;;;;;;;;;;;;;;;;;;;;;;;;;;;;;;;;;;;;;;;;;;;;;;;;;;;;;;;;;;;;;;;;;;;;;;;;;;;;;;;;;;;;;;;;;;;;;;;;;;;;;;;;;;;;;;;;;;;;;;;;;;;
2010;[13971] EL-BIALY M. Z. (2010);samp. M6;;ARABIAN-NUBIAN SHIELD / EGYPT / EASTERN DESERT / DOKHAN VOLCANICS;KID-MALHAK AREA;28.17;34.25;28.33;34.45;;;OUTCROP;;;SUBAERIAL;VOLCANIC ROCK;TRACHYDACITE;;;;;PROTEROZOIC;NEO;;;;WHOLE ROCK;;;;;;;;;;;;;64.87;1.11;;;16.01;;;;;;;;;;;5.14;;2.28;1.48;0.09;;;;;;;3.8;XRF;;;4.83;0.4;;;;;;;;;;;;;;;;;;;;;;;;;;;;;;;;;;;;;;;11;XRF;;;;;;;51;2;;;;4;5;85;20;;;;;72;XRF;;;321;XRF;;;36;XRF;;;293;XRF;;;13;XRF;;;;;;;;;;;;;;744;XRF;;;35;XRF;;;77;XRF;;;;39;XRF;;;;;;;;;;;;;;;;;;;;;;;;;9;XRF;;;;;11;XRF;;;3;;;;;;;;;;;;;;;;;;;;;;;;;;;;;;;;;;;;;;;;;;;;;;;;;;;;;;;;;;;;;;;;;;;;;;;;;;;;;;;;
2010;[13971] EL-BIALY M. Z. (2010);samp. K6;;ARABIAN-NUBIAN SHIELD / EGYPT / EASTERN DESERT / DOKHAN VOLCANICS;KID-MALHAK AREA;28.17;34.25;28.33;34.45;;;OUTCROP;;;SUBAERIAL;VOLCANIC ROCK;TRACHYDACITE;;;;;PROTEROZOIC;NEO;;;;WHOLE ROCK;;;;;;;;;;;;;64.66;1.1;;;16.23;;;;;;;;;;;5.06;;2.37;1.47;0.09;;;;;;;3.78;XRF;;;4.86;0.4;;;;;;;;;;;;;;;;;;;;;;;;;;;;;;;;;;;;;;;9;XRF;;;;;;;47;1;;;;0;6;79;17;;;;;68;XRF;;;297;XRF;;;33;XRF;;;272;XRF;;;12.3;XRF;;;;;;;;;;;;;;693;XRF;;;34;XRF;;;73;XRF;;;;38;XRF;;;;;;;;;;;;;;;;;;;;;;;;;7;XRF;;;;;7;XRF;;;3;;;;;;;;;;;;;;;;;;;;;;;;;;;;;;;;;;;;;;;;;;;;;;;;;;;;;;;;;;;;;;;;;;;;;;;;;;;;;;;;
2010;[13971] EL-BIALY M. Z. (2010);samp. K12;;ARABIAN-NUBIAN SHIELD / EGYPT / EASTERN DESERT / DOKHAN VOLCANICS;KID-MALHAK AREA;28.17;34.25;28.33;34.45;;;OUTCROP;;;SUBAERIAL;VOLCANIC ROCK;TRACHYDACITE;;;;;PROTEROZOIC;NEO;;;;WHOLE ROCK;;;;;;;;;;;;;66.95;1.05;;;15.22;;;;;;;;;;;5.21;;2.26;1.21;0.11;;;;;;;3.38;XRF;;;4.29;0.32;;;;;;;;;;;;;;;;;;;;;;;;;;;;;;;;;;;;;;;11;XRF;;;;;;;68;8;;;;9;25;86;18;;;;;75;XRF;;;308;XRF;;;34;XRF;;;291;XRF;;;16.7;XRF;;;;;;;;;;;;;;712;XRF;;;32;XRF;;;71;XRF;;;;38;XRF;;;;;;;;;;;;;;;;;;;;;;;;;10;XRF;;;;;9;XRF;;;2;;;;;;;;;;;;;;;;;;;;;;;;;;;;;;;;;;;;;;;;;;;;;;;;;;;;;;;;;;;;;;;;;;;;;;;;;;;;;;;;