Year;CITATION;SAMPLE NAME;UNIQUE_ID;LOCATION;LOCATION COMMENT;LATITUDE (MIN.);LONGITUDE (MIN.);LATITUDE (MAX.);LONGITUDE (MAX.);ELEVATION (MIN.);ELEVATION (MAX.);SAMPLING TECHNIQUE;DRILLING DEPTH (MIN.);DRILLING DEPTH (MAX.);LAND/SEA (SAMPLING);ROCK TYPE;ROCK NAME;ROCK TEXTURE;SAMPLE COMMENT;AGE (MIN.);AGE (MAX.);GEOLOGICAL AGE;GEOLOGICAL AGE PREFIX;ERUPTION YEAR;ALTERATION;ALTERATION TYPE;TYPE OF MATERIAL;MINERAL / COMPONENT;SPOT (MINERAL);CRYSTAL;RIM / CORE (MINERAL GRAINS);PRIMARY/SECONDARY;INCLUSION TYPE;SPOT (INCLUSION);MINERAL (INCLUSION);RIM / CORE (INCLUSION);HOSTMINERAL (INCLUSION);HEATING;HEATING TEMPERATURE (?C);SIO2(WT%);TIO2(WT%);ZRO2(WT%);B2O3(WT%);AL2O3(WT%);CR2O3(WT%);LA2O3(WT%);CE2O3(WT%);Y2O3(WT%);V2O3(WT%);NB2O3(WT%);TA2O5(WT%);WO3(WT%);FE2O3T(WT%);FE2O3(WT%);FEOT(WT%);FEO(WT%);CAO(WT%);MGO(WT%);MNO(WT%);BAO(WT%);SRO(WT%);NIO(WT%);ZNO(WT%);CS2O(WT%);RB2O(WT%);K2O(WT%);;;;NA2O(WT%);P2O5(WT%);H2O(WT%);;;;H2OP(WT%);H2OM(WT%);CO2(WT%);C(WT%);F(WT%);CL(WT%);SO2(WT%);SO3(WT%);S(WT%);LOI(WT%);AL(WT%);TI(WT%);FE(WT%);MG(WT%);CA(WT%);K(WT%);NA(WT%);LI(PPM);BE(PPM);B(PPM);C(PPM);F(PPM);NA(PPM);MG(PPM);AL(PPM);P(PPM);S(PPM);CL(PPM);AR40(AT/G);AR40(CCMSTP/G);AR40(MOL/G);AR40(PPB);K(PPM);CA(PPM);SC(PPM);;;;TI(PPM);;;;V(PPM);CR(PPM);MN(PPM);FE(PPM);CO(PPM);NI(PPM);CU(PPM);ZN(PPM);GA(PPM);GE(PPM);AS(PPM);SE(PPM);BR(PPM);RB(PPM): altern. values or methods;;;;SR(PPM): altern. values or methods;;;;Y(PPM): altern. values or methods;;;;ZR(PPM): altern. values or methods;;;;NB(PPM): altern. values or methods;;;;MO(PPM): altern. values or methods;;;;AG(PPM);CD(PPM);IN(PPM);SN(PPM);SB(PPM);TE(PPM);CS(PPM);BA(PPM): altern. values or methods;;;;LA(PPM): altern. values or methods;;;;CE(PPM): altern. values or methods;;;;PR(PPM);ND(PPM): altern. values or methods;;;;SM(PPM): altern. values or methods;;;;EU(PPM);GD(PPM);TB(PPM);DY(PPM);HO(PPM);ER(PPM);TM(PPM);YB(PPM);LU(PPM);HF(PPM);TA(PPM);W(PPM);RE(PPM);AU(PPM);AU(PPB);HG(PPM);HG(PPB);TL(PPM);PB(PPM): altern. values or methods;;;;PB206(PPM);BI(PPM);TH(PPM): altern. values or methods;;;;U(PPM);ND143_ND144;ND143_ND144_INI;EPSILON_ND;EPSILON_ND_INI;SM147_ND144;SR87_SR86;SR87_SR86_INI;EPSILON_SR;EPSILON_SR_INI;RB87_SR86;PB206_PB204;PB206_PB204_INI;PB206_PB207;PB206_PB208;PB207_PB204;PB207_PB204_INI;PB207_PB206;PB208_PB204;PB208_PB204_INI;PB208_PB206;HF176_HF177;HF176_HF177_INI;EPSILON_HF_INI;LU176_HF177;YB176_HF177;AR36_AR39;AR36_AR40;AR37_AR39;AR38_AR39;AR39_AR40;AR40_AR36;AR40_AR39;PB206_U238;PB207_U235;PB208_TH232;TH232_PB204;TH232_U238;U235_PB204;U238_PB204;U238_PB206;D7LI(VS LSVEC);D18O(PER MIL);D18O(VS SMOW);D18O(VS VSMOW);D56FE(VS IRMM-014);D57FE(VS IRMM-014);DD(VS SMOW);ALBITE(MOL%);ANORTHITE(MOL%);CA OLIVINE(MOL%);ENSTATITE(MOL%);FAYALITE(MOL%);FORSTERITE(MOL%);FERROSILITE(MOL%);ORTHOCLASE(MOL%);TEPHROITE(MOL%);ULVOSPINEL(MOL%);WOLLASTONITE(MOL%);AGE(KA): altern. values or methods;;;;AGE(MA): altern. values or methods;;;;;;;;AGE_PB207_PB206(MA);AGE_PB207_U235(MA);AGE_PB206_U238(MA): altern. values or methods;;;;;;AGE_PB208_TH232(MA);
2014;[18755] DONG YU (2014);samp. D0574-1;;CENTRAL ASIAN FOLDBELT - MESOZOIC / CHINA - MESOZOIC / INNER MONGOLIA / BAIYINGAOLAO FORMATION;WUCHAGOU AREA OF THZE HORQIN RIGHT FRONT BANNER, GREAT XING^AN RANGE;46.8;120.33;46.8;120.33;;;OUTCROP;;;SUBAERIAL;VOLCANIC ROCK;TRACHYDACITE;;;;;CRETACEOUS;;;;;WHOLE ROCK;;;;;;;;;;;;;68.22;0.57;;;15.39;;;;;;;;;3.26;;;1.35;1.23;1.02;0.09;;;;;;;3.9;XRF;;;4.47;0.18;;;;;;;;;;;;;;1.25;;;;;;;;44.2;2.69;;;;;;;;;;;;;;;;5.8;ICPMS;;;;;;;53;7;;;6.7;2.9;6.7;84;20.8;;;;;135;ICPMS;;;466;ICPMS;;;25.3;ICPMS;;;158;ICPMS;;;12.3;ICPMS;;;0.19;ICPMS;;;;0.03;0.05;;4.47;;4.74;785;ICPMS;;;37.5;ICPMS;;;75.7;ICPMS;;;8.65;33;ICPMS;;;5.83;ICPMS;;;1.35;5.26;0.82;4.69;0.91;2.56;0.44;2.56;0.43;5.26;1.07;1.6;0.002;;;;;0.77;25.2;ICPMS;;;;0.34;16.7;ICPMS;;;4.9;;;;;;;;;;;;;;;;;;;;;;;;;;;;;;;;;;;;;;;;;;;;;;;;;;;;;;;;;;;;;;;;;;;;;;;;;;;;;;;;
2014;[18755] DONG YU (2014);samp. D2224-1-1;;CENTRAL ASIAN FOLDBELT - MESOZOIC / CHINA - MESOZOIC / INNER MONGOLIA / BAIYINGAOLAO FORMATION;WUCHAGOU AREA OF THZE HORQIN RIGHT FRONT BANNER, GREAT XING^AN RANGE;46.8;120.33;46.8;120.33;;;OUTCROP;;;SUBAERIAL;VOLCANIC ROCK;TRACHYDACITE;;;;;CRETACEOUS;;;;;WHOLE ROCK;;;;;;;;;;;;;68.54;0.61;;;15.62;;;;;;;;;3.43;;;0.25;0.53;0.81;0.06;;;;;;;3.65;XRF;;;4.17;0.17;;;;;;;;;;;;;;1.99;;;;;;;;20.1;2.14;;;;;;;;;;;;;;;;6.5;ICPMS;;;;;;;49;24.1;;;8.2;6.2;5;73.9;21.1;;;;;138;ICPMS;;;407;ICPMS;;;15.6;ICPMS;;;137;ICPMS;;;12.2;ICPMS;;;0.29;ICPMS;;;;0.08;0.01;;24.6;;20.8;941;ICPMS;;;34.2;ICPMS;;;66.9;ICPMS;;;7.44;27.3;ICPMS;;;4.57;ICPMS;;;1.12;3.42;0.53;2.93;0.54;1.51;0.25;1.59;0.26;4.81;1.12;6.52;0;;;;;0.96;15.4;ICPMS;;;;0.27;16.6;ICPMS;;;3.12;;;;;;;;;;;;;;;;;;;;;;;;;;;;;;;;;;;;;;;;;;;;;;;;;;;;;;;;;;;;;;;;;;;;;;;;;;;;;;;;
2014;[18755] DONG YU (2014);samp. PM011-19-1;;CENTRAL ASIAN FOLDBELT - MESOZOIC / CHINA - MESOZOIC / INNER MONGOLIA / BAIYINGAOLAO FORMATION;WUCHAGOU AREA OF THZE HORQIN RIGHT FRONT BANNER, GREAT XING^AN RANGE;46.8;120.33;46.8;120.33;;;OUTCROP;;;SUBAERIAL;VOLCANIC ROCK;TRACHYDACITE;;;;;CRETACEOUS;;;;;WHOLE ROCK;;;;;;;;;;;;;68.69;0.3;;;14.62;;;;;;;;;2.03;;;0.6;2.06;0.58;0.09;;;;;;;4.72;XRF;;;3.42;0.09;;;;;;;;;;;;;;3.15;;;;;;;;31.6;2.39;;;;;;;;;;;;;;;;3.9;ICPMS;;;;;;;40;4.5;;;3.2;1.3;3.5;103;17.4;;;;;129;ICPMS;;;319;ICPMS;;;21.8;ICPMS;;;245;ICPMS;;;11.4;ICPMS;;;0.25;ICPMS;;;;0.12;0.04;;0.7;;3.92;949;ICPMS;;;37.9;ICPMS;;;72.1;ICPMS;;;8.03;28.6;ICPMS;;;4.97;ICPMS;;;1.03;4.05;0.7;3.57;0.71;2.24;0.39;2.78;0.4;7.57;0.97;1.55;0;;;;;0.9;23.2;ICPMS;;;;0.31;13.7;ICPMS;;;3.72;;;;;;;;;;;;;;;;;;;;;;;;;;;;;;;;;;;;;;;;;;;;;;;;;;;;;;;;;;;;;;;;;;;;;;;;;;;;;;;;
2015;[18881] DASH B.(2015)  [GeoReM [8682] ];samp. 3/21;;CENTRAL ASIAN FOLDBELT - MESOZOIC / MONGOLIA - MESOZOIC / EASTERN MONGOLIA;;46.2858;107.7722;46.2858;107.7722;;;OUTCROP;;;SUBAERIAL;VOLCANIC ROCK;TRACHYDACITE;;;;;CRETACEOUS;;;;;WHOLE ROCK;;;;;;;;;;;;;68.75;0.18;;;12.86;;;;;;;;;;0.98;;0.56;0.93;0.18;0.05;;;;;;;5.24;XRF;;;4.1;0.03;;;;;;;;;;;;;;4.91;;;;;;;;;;;;;;;;;;;;;;;;;;;;;;;;;;;;;1.6;4.2;;;17.3;;;;;154.3;ICPMS;;;210.5;ICPMS;;;13.5;ICPMS;;;171.9;ICPMS;;;12.6;ICPMS;;;;;;;;;;;;;3.57;1080;ICPMS;;;59.8;ICPMS;;;105.13;ICPMS;;;11.12;34.74;ICPMS;;;5.06;ICPMS;;;0.9;3.82;0.51;2.32;0.46;1.34;0.22;1.48;0.22;5.47;1.03;;;;;;;;33.17;ICPMS;;;;;19.8;ICPMS;;;4.69;;;;;;;;;;;;;;;;;;;;;;;;;;;;;;;;;;;;;;;;;;;;;;;;;;;;;;;;;;;;;;;;;;;;;;;;;;;;;;;;
2015;[19629] PERETYAZHKO I. S. (2015);samp. NR-24;;ANATOLIA-IRAN BELT / TURKEY / EASTERN ANATOLIAN VOLCANIC BELT / NEMRUT;;38.5562;42.2357;38.5562;42.2357;;;OUTCROP;;;SUBAERIAL;VOLCANIC ROCK;TRACHYDACITE;;;;;;;;;;WHOLE ROCK;;;;;;;;;;;;;61.4;0.93;;;16.81;;;;;;;;;;2.23;;4.58;3.06;0.99;0.13;;;;;;;3.56;XRF;;;5.22;0.28;;;;;;;;;;;;;;0.84;;;;;;;;27.1;3.8;;;;;;;;;;;;;;;;9.7;ICPMS;;;;;;;25.7;4.4;;;6.1;2.2;7.8;103;23.9;1.54;;;;98;ICPMS;;;217;ICPMS;;;47;ICPMS;;;642;ICPMS;;;26.8;ICPMS;;;4.8;ICPMS;;;;;;4.8;0.37;;3.44;678;ICPMS;;;44.9;ICPMS;;;104.5;ICPMS;;;11.6;48.5;ICPMS;;;10;ICPMS;;;2.52;10.3;1.51;9.7;1.98;5.7;0.84;5.6;0.88;12.1;1.97;2.33;;;;;;0.48;11.8;ICPMS;;;;0.12;12.3;ICPMS;;;3.87;;;;;;;;;;;;;;;;;;;;;;;;;;;;;;;;;;;;;;;;;;;;;;;;;;;;;;;;;;;;;;;;;;;;;;;;;;;;;;;;
2015;[19629] PERETYAZHKO I. S. (2015);samp. NR-14;;ANATOLIA-IRAN BELT / TURKEY / EASTERN ANATOLIAN VOLCANIC BELT / NEMRUT;;38.6853;42.2243;38.6853;42.2243;;;OUTCROP;;;SUBAERIAL;VOLCANIC ROCK;TRACHYDACITE;;;;;;;;;;WHOLE ROCK;;;;;;;;;;;;;64.23;1.17;;;12.95;;;;;;;;;;1.98;;4.34;3.72;2.44;0.11;;;;;;;3.1;XRF;;;4.92;0.16;;;;;;;;;;;;;;0.5;;;;;;;;50.6;6.7;;;;;;;;;;;;;;;;12.2;ICPMS;;;;;;;122;25.9;;;19.3;17.2;18.3;133;3.4;2.05;;;;123;ICPMS;;;164;ICPMS;;;70.4;ICPMS;;;649;ICPMS;;;44.6;ICPMS;;;6.2;ICPMS;;;;;;8.7;0.97;;5.6;38;ICPMS;;;49.5;ICPMS;;;120;ICPMS;;;13.1;53.1;ICPMS;;;12;ICPMS;;;1.06;13.1;2.13;14.2;3;8.9;1.32;8.8;1.31;15.3;3.5;3.4;;;;;;0.52;17;ICPMS;;;;0.1;17.1;ICPMS;;;6;;;;;;;;;;;;;;;;;;;;;;;;;;;;;;;;;;;;;;;;;;;;;;;;;;;;;;;;;;;;;;;;;;;;;;;;;;;;;;;;
2015;[19629] PERETYAZHKO I. S. (2015);samp. NR-24;;ANATOLIA-IRAN BELT / TURKEY / EASTERN ANATOLIAN VOLCANIC BELT / NEMRUT;;38.5562;42.2357;38.5562;42.2357;;;OUTCROP;;;SUBAERIAL;VOLCANIC ROCK;TRACHYDACITE;;;;;;;;;;MINERAL / COMPONENT (INCL. GROUNDMASS);APATITE;;;;PRIMARY;;;;;;;;0.77;;;;;;;;;;;;;;;0.76;;52.23;;;;1.14;;;;;;;;;;41.98;;;;;;;;;3.29;0.12;;;;;;;;;;;;;;;;;;;;;;;;;;;;;;;;;;;;;;;;;;;;;;;;;;;;;;;;;;;;;;;;;;;;;;;;;;;;;;;;;;;;;;;;;;;;;;;;;;;;;;;;;;;;;;;;;;;;;;;;;;;;;;;;;;;;;;;;;;;;;;;;;;;;;;;;;;;;;;;;;;;;;;;;;;;;;;;;;;;;;;;;;;;;;;;;;;;;;;;;;;;;;;;;;;
2015;[19629] PERETYAZHKO I. S. (2015);samp. NR-24;;ANATOLIA-IRAN BELT / TURKEY / EASTERN ANATOLIAN VOLCANIC BELT / NEMRUT;;38.5562;42.2357;38.5562;42.2357;;;OUTCROP;;;SUBAERIAL;VOLCANIC ROCK;TRACHYDACITE;;;;;;;;;;MINERAL / COMPONENT (INCL. GROUNDMASS);APATITE;;;;PRIMARY;;;;;;;;;;;;;;;;;;;;;;;0.95;;52.67;;;;0.93;;;;;;;;;;42.39;;;;;;;;;2.71;;;;;;;;;;;;;;;;;;;;;;;;;;;;;;;;;;;;;;;;;;;;;;;;;;;;;;;;;;;;;;;;;;;;;;;;;;;;;;;;;;;;;;;;;;;;;;;;;;;;;;;;;;;;;;;;;;;;;;;;;;;;;;;;;;;;;;;;;;;;;;;;;;;;;;;;;;;;;;;;;;;;;;;;;;;;;;;;;;;;;;;;;;;;;;;;;;;;;;;;;;;;;;;;;;;
2015;[19629] PERETYAZHKO I. S. (2015);samp. NR-24;;ANATOLIA-IRAN BELT / TURKEY / EASTERN ANATOLIAN VOLCANIC BELT / NEMRUT;;38.5562;42.2357;38.5562;42.2357;;;OUTCROP;;;SUBAERIAL;VOLCANIC ROCK;TRACHYDACITE;;;;;;;;;;MINERAL / COMPONENT (INCL. GROUNDMASS);APATITE;;;;PRIMARY;;;;;;;;;;;;;;;;;;;;;;;0.77;;52.3;0.3;;;0.65;;;;;;;;;;41.8;;;;;;;;;2.2;;;;;;;;;;;;;;;;;;;;;;;;;;;;;;;;;;;;;;;;;;;;;;;;;;;;;;;;;;;;;;;;;;;;;;;;;;;;;;;;;;;;;;;;;;;;;;;;;;;;;;;;;;;;;;;;;;;;;;;;;;;;;;;;;;;;;;;;;;;;;;;;;;;;;;;;;;;;;;;;;;;;;;;;;;;;;;;;;;;;;;;;;;;;;;;;;;;;;;;;;;;;;;;;;;;
2015;[19629] PERETYAZHKO I. S. (2015);samp. NR-24;;ANATOLIA-IRAN BELT / TURKEY / EASTERN ANATOLIAN VOLCANIC BELT / NEMRUT;;38.5562;42.2357;38.5562;42.2357;;;OUTCROP;;;SUBAERIAL;VOLCANIC ROCK;TRACHYDACITE;;;;;;;;;;MINERAL / COMPONENT (INCL. GROUNDMASS);APATITE;;;;PRIMARY;;;;;;;;;;;;;;;;;;;;;;;1.81;;52.13;0.41;;;0.67;;;;;;;;;;42.02;;;;;;;;;3.15;0.08;;;;;;;;;;;;;;;;;;;;;;;;;;;;;;;;;;;;;;;;;;;;;;;;;;;;;;;;;;;;;;;;;;;;;;;;;;;;;;;;;;;;;;;;;;;;;;;;;;;;;;;;;;;;;;;;;;;;;;;;;;;;;;;;;;;;;;;;;;;;;;;;;;;;;;;;;;;;;;;;;;;;;;;;;;;;;;;;;;;;;;;;;;;;;;;;;;;;;;;;;;;;;;;;;;
2015;[19629] PERETYAZHKO I. S. (2015);samp. NR-24;;ANATOLIA-IRAN BELT / TURKEY / EASTERN ANATOLIAN VOLCANIC BELT / NEMRUT;;38.5562;42.2357;38.5562;42.2357;;;OUTCROP;;;SUBAERIAL;VOLCANIC ROCK;TRACHYDACITE;;;;;;;;;;MINERAL / COMPONENT (INCL. GROUNDMASS);APATITE;;;;PRIMARY;;;;;;;;0.77;;;;;;;;;;;;;;;0.44;;52.83;;;;1.3;;;;;;;;;;42.53;;;;;;;;;2.81;0.16;;;;;;;;;;;;;;;;;;;;;;;;;;;;;;;;;;;;;;;;;;;;;;;;;;;;;;;;;;;;;;;;;;;;;;;;;;;;;;;;;;;;;;;;;;;;;;;;;;;;;;;;;;;;;;;;;;;;;;;;;;;;;;;;;;;;;;;;;;;;;;;;;;;;;;;;;;;;;;;;;;;;;;;;;;;;;;;;;;;;;;;;;;;;;;;;;;;;;;;;;;;;;;;;;;
2015;[19629] PERETYAZHKO I. S. (2015);samp. NR-24;;ANATOLIA-IRAN BELT / TURKEY / EASTERN ANATOLIAN VOLCANIC BELT / NEMRUT;;38.5562;42.2357;38.5562;42.2357;;;OUTCROP;;;SUBAERIAL;VOLCANIC ROCK;TRACHYDACITE;;;;;;;;;;MINERAL / COMPONENT (INCL. GROUNDMASS);APATITE;;;;PRIMARY;;;;;;;;;;;;;;;;;;;;;;;1.35;;51.98;;;;0.66;;;;;;;;;;41.89;;;;;;;;;2.66;0.12;;;;;;;;;;;;;;;;;;;;;;;;;;;;;;;;;;;;;;;;;;;;;;;;;;;;;;;;;;;;;;;;;;;;;;;;;;;;;;;;;;;;;;;;;;;;;;;;;;;;;;;;;;;;;;;;;;;;;;;;;;;;;;;;;;;;;;;;;;;;;;;;;;;;;;;;;;;;;;;;;;;;;;;;;;;;;;;;;;;;;;;;;;;;;;;;;;;;;;;;;;;;;;;;;;
2015;[19629] PERETYAZHKO I. S. (2015);samp. NR-24;;ANATOLIA-IRAN BELT / TURKEY / EASTERN ANATOLIAN VOLCANIC BELT / NEMRUT;;38.5562;42.2357;38.5562;42.2357;;;OUTCROP;;;SUBAERIAL;VOLCANIC ROCK;TRACHYDACITE;;;;;;;;;;MINERAL / COMPONENT (INCL. GROUNDMASS);AMPHIBOLE;;;;PRIMARY;;;;;;;;52.82;1.05;;;3.7;;;;;;;;;;;19.73;;11.1;8.32;0.67;;;;;;;1.19;EMP (EPMA);;;1.06;;;;;;;;;;;;;;;;;;;;;;;;;;;;;;;;;;;;;;;;;;;;;;;;;;;;;;;;;;;;;;;;;;;;;;;;;;;;;;;;;;;;;;;;;;;;;;;;;;;;;;;;;;;;;;;;;;;;;;;;;;;;;;;;;;;;;;;;;;;;;;;;;;;;;;;;;;;;;;;;;;;;;;;;;;;;;;;;;;;;;;;;;;;;;;;;;;;;;;;;;;;;;;;;;;;;;;;;;;;;;
2015;[19629] PERETYAZHKO I. S. (2015);samp. NR-24;;ANATOLIA-IRAN BELT / TURKEY / EASTERN ANATOLIAN VOLCANIC BELT / NEMRUT;;38.5562;42.2357;38.5562;42.2357;;;OUTCROP;;;SUBAERIAL;VOLCANIC ROCK;TRACHYDACITE;;;;;;;;;;MINERAL / COMPONENT (INCL. GROUNDMASS);AMPHIBOLE;;;;PRIMARY;;;;;;;;55.9;1.02;;;5.67;;;;;;;;;;;16.11;;10.68;7.35;0.41;;;;;;;1.95;EMP (EPMA);;;1.63;;;;;;;;;;;;;;;;;;;;;;;;;;;;;;;;;;;;;;;;;;;;;;;;;;;;;;;;;;;;;;;;;;;;;;;;;;;;;;;;;;;;;;;;;;;;;;;;;;;;;;;;;;;;;;;;;;;;;;;;;;;;;;;;;;;;;;;;;;;;;;;;;;;;;;;;;;;;;;;;;;;;;;;;;;;;;;;;;;;;;;;;;;;;;;;;;;;;;;;;;;;;;;;;;;;;;;;;;;;;;
2015;[19629] PERETYAZHKO I. S. (2015);samp. NR-24;;ANATOLIA-IRAN BELT / TURKEY / EASTERN ANATOLIAN VOLCANIC BELT / NEMRUT;;38.5562;42.2357;38.5562;42.2357;;;OUTCROP;;;SUBAERIAL;VOLCANIC ROCK;TRACHYDACITE;;;;;;;;;;MINERAL / COMPONENT (INCL. GROUNDMASS);AMPHIBOLE;;;;PRIMARY;;;;;;;;55.92;0.83;;;6.08;;;;;;;;;;;17.2;;10.27;8.49;0.67;;;;;;;0.95;EMP (EPMA);;;1.36;;;;;;;;;;;;;;;;;;;;;;;;;;;;;;;;;;;;;;;;;;;;;;;;;;;;;;;;;;;;;;;;;;;;;;;;;;;;;;;;;;;;;;;;;;;;;;;;;;;;;;;;;;;;;;;;;;;;;;;;;;;;;;;;;;;;;;;;;;;;;;;;;;;;;;;;;;;;;;;;;;;;;;;;;;;;;;;;;;;;;;;;;;;;;;;;;;;;;;;;;;;;;;;;;;;;;;;;;;;;;
2015;[19629] PERETYAZHKO I. S. (2015);samp. NR-24;;ANATOLIA-IRAN BELT / TURKEY / EASTERN ANATOLIAN VOLCANIC BELT / NEMRUT;;38.5562;42.2357;38.5562;42.2357;;;OUTCROP;;;SUBAERIAL;VOLCANIC ROCK;TRACHYDACITE;;;;;;;;;;MINERAL / COMPONENT (INCL. GROUNDMASS);OLIVINE;;;;PRIMARY;;;;;;;;34.02;;;;;;;;;;;;;;0.3;;47.21;0.35;18.31;1.18;;;;;;;;;;;;;;;;;;;;;;;;;;;;;;;;;;;;;;;;;;;;;;;;;;;;;;;;;;;;;;;;;;;;;;;;;;;;;;;;;;;;;;;;;;;;;;;;;;;;;;;;;;;;;;;;;;;;;;;;;;;;;;;;;;;;;;;;;;;;;;;;;;;;;;;;;;;;;;;;;;;;;;;;;;;;;;;;;;;;;;;;;;;;;;;;;;;;;;;;;;;;;;;;;;;;;;;;;;;;;;;;;;;;;;;;
2015;[19629] PERETYAZHKO I. S. (2015);samp. NR-24;;ANATOLIA-IRAN BELT / TURKEY / EASTERN ANATOLIAN VOLCANIC BELT / NEMRUT;;38.5562;42.2357;38.5562;42.2357;;;OUTCROP;;;SUBAERIAL;VOLCANIC ROCK;TRACHYDACITE;;;;;;;;;;INCLUSION;;;;;;GLASS INCLUSION;;;;OLIVINE;FALSE;;62.43;0.84;;;16.54;;;;;;;;;;;;4.59;3.92;1;;;;;;;;4.03;EMP (EPMA);;;5.98;0.86;;;;;;;;;;;;;;;;;;;;;;;;;;;;;;;;;;;;;;;;;;;;;;;;;;;;;;;;;;;;;;;;;;;;;;;;;;;;;;;;;;;;;;;;;;;;;;;;;;;;;;;;;;;;;;;;;;;;;;;;;;;;;;;;;;;;;;;;;;;;;;;;;;;;;;;;;;;;;;;;;;;;;;;;;;;;;;;;;;;;;;;;;;;;;;;;;;;;;;;;;;;;;;;;;;;;;;;;;;;;
2015;[19629] PERETYAZHKO I. S. (2015);samp. NR-24;;ANATOLIA-IRAN BELT / TURKEY / EASTERN ANATOLIAN VOLCANIC BELT / NEMRUT;;38.5562;42.2357;38.5562;42.2357;;;OUTCROP;;;SUBAERIAL;VOLCANIC ROCK;TRACHYDACITE;;;;;;;;;;MINERAL / COMPONENT (INCL. GROUNDMASS);OLIVINE;;;;PRIMARY;;;;;;;;35.09;;;;;;;;;;;;;;0;;43.14;0.28;22.01;0.81;;;;;;;;;;;;;;;;;;;;;;;;;;;;;;;;;;;;;;;;;;;;;;;;;;;;;;;;;;;;;;;;;;;;;;;;;;;;;;;;;;;;;;;;;;;;;;;;;;;;;;;;;;;;;;;;;;;;;;;;;;;;;;;;;;;;;;;;;;;;;;;;;;;;;;;;;;;;;;;;;;;;;;;;;;;;;;;;;;;;;;;;;;;;;;;;;;;;;;;;;;;;;;;;;;;;;;;;;;;;;;;;;;;;;;;;
2015;[19629] PERETYAZHKO I. S. (2015);samp. NR-24;;ANATOLIA-IRAN BELT / TURKEY / EASTERN ANATOLIAN VOLCANIC BELT / NEMRUT;;38.5562;42.2357;38.5562;42.2357;;;OUTCROP;;;SUBAERIAL;VOLCANIC ROCK;TRACHYDACITE;;;;;;;;;;INCLUSION;;;;;;GLASS INCLUSION;;;;OLIVINE;FALSE;;61.16;1.29;;;16.61;;;;;;;;;;;;6.3;5.28;1.65;0.17;;;;;;;3.04;EMP (EPMA);;;5.01;0.7;;;;;;;;;;;;;;;;;;;;;;;;;;;;;;;;;;;;;;;;;;;;;;;;;;;;;;;;;;;;;;;;;;;;;;;;;;;;;;;;;;;;;;;;;;;;;;;;;;;;;;;;;;;;;;;;;;;;;;;;;;;;;;;;;;;;;;;;;;;;;;;;;;;;;;;;;;;;;;;;;;;;;;;;;;;;;;;;;;;;;;;;;;;;;;;;;;;;;;;;;;;;;;;;;;;;;;;;;;;;
2015;[19629] PERETYAZHKO I. S. (2015);samp. NR-24;;ANATOLIA-IRAN BELT / TURKEY / EASTERN ANATOLIAN VOLCANIC BELT / NEMRUT;;38.5562;42.2357;38.5562;42.2357;;;OUTCROP;;;SUBAERIAL;VOLCANIC ROCK;TRACHYDACITE;;;;;;;;;;MINERAL / COMPONENT (INCL. GROUNDMASS);OLIVINE;;;;PRIMARY;;;;;;;;34.08;;;;;;;;;;;;;;0.17;;45.71;;19.62;0.88;;;;;;;;;;;;;;;;;;;;;;;;;;;;;;;;;;;;;;;;;;;;;;;;;;;;;;;;;;;;;;;;;;;;;;;;;;;;;;;;;;;;;;;;;;;;;;;;;;;;;;;;;;;;;;;;;;;;;;;;;;;;;;;;;;;;;;;;;;;;;;;;;;;;;;;;;;;;;;;;;;;;;;;;;;;;;;;;;;;;;;;;;;;;;;;;;;;;;;;;;;;;;;;;;;;;;;;;;;;;;;;;;;;;;;;;
2015;[19629] PERETYAZHKO I. S. (2015);samp. NR-24;;ANATOLIA-IRAN BELT / TURKEY / EASTERN ANATOLIAN VOLCANIC BELT / NEMRUT;;38.5562;42.2357;38.5562;42.2357;;;OUTCROP;;;SUBAERIAL;VOLCANIC ROCK;TRACHYDACITE;;;;;;;;;;INCLUSION;;;;;;GLASS INCLUSION;;;;OLIVINE;FALSE;;63.99;0.92;;;17.84;;;;;;;;;;;;4.26;3.19;1.08;;;;;;;;3.77;EMP (EPMA);;;5.78;0.25;;;;;;;;;;0.09;;;;;;;;;;;;;;;;;;;;;;;;;;;;;;;;;;;;;;;;;;;;;;;;;;;;;;;;;;;;;;;;;;;;;;;;;;;;;;;;;;;;;;;;;;;;;;;;;;;;;;;;;;;;;;;;;;;;;;;;;;;;;;;;;;;;;;;;;;;;;;;;;;;;;;;;;;;;;;;;;;;;;;;;;;;;;;;;;;;;;;;;;;;;;;;;;;;;;;;;;;;;;;;;;;
2015;[19629] PERETYAZHKO I. S. (2015);samp. NR-14;;ANATOLIA-IRAN BELT / TURKEY / EASTERN ANATOLIAN VOLCANIC BELT / NEMRUT;;38.6853;42.2243;38.6853;42.2243;;;OUTCROP;;;SUBAERIAL;VOLCANIC ROCK;TRACHYDACITE;;;;;;;;;;MINERAL / COMPONENT (INCL. GROUNDMASS);OLIVINE;;;;PRIMARY;;;;;;;;36.24;;;;0.17;;;;;;;;;;0.06;;32.27;0.31;30.06;0.56;;;;;;;;;;;;;;;;;;;;;;;;;;;;;;;;;;;;;;;;;;;;;;;;;;;;;;;;;;;;;;;;;;;;;;;;;;;;;;;;;;;;;;;;;;;;;;;;;;;;;;;;;;;;;;;;;;;;;;;;;;;;;;;;;;;;;;;;;;;;;;;;;;;;;;;;;;;;;;;;;;;;;;;;;;;;;;;;;;;;;;;;;;;;;;;;;;;;;;;;;;;;;;;;;;;;;;;;;;;;;;;;;;;;;;;;
2015;[19629] PERETYAZHKO I. S. (2015);samp. NR-14;;ANATOLIA-IRAN BELT / TURKEY / EASTERN ANATOLIAN VOLCANIC BELT / NEMRUT;;38.6853;42.2243;38.6853;42.2243;;;OUTCROP;;;SUBAERIAL;VOLCANIC ROCK;TRACHYDACITE;;;;;;;;;;INCLUSION;;;;;;GLASS INCLUSION;;;;OLIVINE;FALSE;;56.16;1.28;;;16.95;;;;;;;;;;;;5.66;7.65;2.07;;;;;;;;2.07;EMP (EPMA);;;5.36;0.46;;;;;;;;;;;;;;;;;;;;;;;;;;;;;;;;;;;;;;;;;;;;;;;;;;;;;;;;;;;;;;;;;;;;;;;;;;;;;;;;;;;;;;;;;;;;;;;;;;;;;;;;;;;;;;;;;;;;;;;;;;;;;;;;;;;;;;;;;;;;;;;;;;;;;;;;;;;;;;;;;;;;;;;;;;;;;;;;;;;;;;;;;;;;;;;;;;;;;;;;;;;;;;;;;;;;;;;;;;;;
2015;[19629] PERETYAZHKO I. S. (2015);samp. NR-14;;ANATOLIA-IRAN BELT / TURKEY / EASTERN ANATOLIAN VOLCANIC BELT / NEMRUT;;38.6853;42.2243;38.6853;42.2243;;;OUTCROP;;;SUBAERIAL;VOLCANIC ROCK;TRACHYDACITE;;;;;;;;;;MINERAL / COMPONENT (INCL. GROUNDMASS);OLIVINE;;;;PRIMARY;;;;;;;;37.59;;;;;;;;;;;;;;0;;28.23;0.29;34;0.44;;;;;;;;;;;;;;;;;;;;;;;;;;;;;;;;;;;;;;;;;;;;;;;;;;;;;;;;;;;;;;;;;;;;;;;;;;;;;;;;;;;;;;;;;;;;;;;;;;;;;;;;;;;;;;;;;;;;;;;;;;;;;;;;;;;;;;;;;;;;;;;;;;;;;;;;;;;;;;;;;;;;;;;;;;;;;;;;;;;;;;;;;;;;;;;;;;;;;;;;;;;;;;;;;;;;;;;;;;;;;;;;;;;;;;;;
2015;[19629] PERETYAZHKO I. S. (2015);samp. NR-14;;ANATOLIA-IRAN BELT / TURKEY / EASTERN ANATOLIAN VOLCANIC BELT / NEMRUT;;38.6853;42.2243;38.6853;42.2243;;;OUTCROP;;;SUBAERIAL;VOLCANIC ROCK;TRACHYDACITE;;;;;;;;;;INCLUSION;;;;;;GLASS INCLUSION;;;;OLIVINE;FALSE;;58.79;0.97;;;18.2;;;;;;;;;;;;3.13;3.53;1.81;;;;;;;;3.06;EMP (EPMA);;;6.04;0.6;;;;;;;;;;;;;;;;;;;;;;;;;;;;;;;;;;;;;;;;;;;;;;;;;;;;;;;;;;;;;;;;;;;;;;;;;;;;;;;;;;;;;;;;;;;;;;;;;;;;;;;;;;;;;;;;;;;;;;;;;;;;;;;;;;;;;;;;;;;;;;;;;;;;;;;;;;;;;;;;;;;;;;;;;;;;;;;;;;;;;;;;;;;;;;;;;;;;;;;;;;;;;;;;;;;;;;;;;;;;
2015;[19629] PERETYAZHKO I. S. (2015);samp. NR-14;;ANATOLIA-IRAN BELT / TURKEY / EASTERN ANATOLIAN VOLCANIC BELT / NEMRUT;;38.6853;42.2243;38.6853;42.2243;;;OUTCROP;;;SUBAERIAL;VOLCANIC ROCK;TRACHYDACITE;;;;;;;;;;MINERAL / COMPONENT (INCL. GROUNDMASS);OLIVINE;;;;PRIMARY;;;;;;;;38.04;;;;;;;;;;;;;;0;;21.02;0.17;38.77;0.36;;;;;;;;;;;;;;;;;;;;;;;;;;;;;;;;;;;;;;;;;;;;;;;;;;;;;;;;;;;;;;;;;;;;;;;;;;;;;;;;;;;;;;;;;;;;;;;;;;;;;;;;;;;;;;;;;;;;;;;;;;;;;;;;;;;;;;;;;;;;;;;;;;;;;;;;;;;;;;;;;;;;;;;;;;;;;;;;;;;;;;;;;;;;;;;;;;;;;;;;;;;;;;;;;;;;;;;;;;;;;;;;;;;;;;;;
2015;[19629] PERETYAZHKO I. S. (2015);samp. NR-14;;ANATOLIA-IRAN BELT / TURKEY / EASTERN ANATOLIAN VOLCANIC BELT / NEMRUT;;38.6853;42.2243;38.6853;42.2243;;;OUTCROP;;;SUBAERIAL;VOLCANIC ROCK;TRACHYDACITE;;;;;;;;;;INCLUSION;;;;;;GLASS INCLUSION;;;;OLIVINE;FALSE;;67.74;0.74;;;15.59;;;;;;;;;;;;2.29;1.21;0.23;;;;;;;;4.87;EMP (EPMA);;;5.49;0.32;;;;;;;;;;0.04;;;;;;;;;;;;;;;;;;;;;;;;;;;;;;;;;;;;;;;;;;;;;;;;;;;;;;;;;;;;;;;;;;;;;;;;;;;;;;;;;;;;;;;;;;;;;;;;;;;;;;;;;;;;;;;;;;;;;;;;;;;;;;;;;;;;;;;;;;;;;;;;;;;;;;;;;;;;;;;;;;;;;;;;;;;;;;;;;;;;;;;;;;;;;;;;;;;;;;;;;;;;;;;;;;