Year;CITATION;SAMPLE NAME;UNIQUE_ID;LOCATION;LOCATION COMMENT;LATITUDE (MIN.);LONGITUDE (MIN.);LATITUDE (MAX.);LONGITUDE (MAX.);ELEVATION (MIN.);ELEVATION (MAX.);SAMPLING TECHNIQUE;DRILLING DEPTH (MIN.);DRILLING DEPTH (MAX.);LAND/SEA (SAMPLING);ROCK TYPE;ROCK NAME;ROCK TEXTURE;SAMPLE COMMENT;AGE (MIN.);AGE (MAX.);GEOLOGICAL AGE;GEOLOGICAL AGE PREFIX;ERUPTION YEAR;ALTERATION;ALTERATION TYPE;TYPE OF MATERIAL;MINERAL / COMPONENT;SPOT (MINERAL);CRYSTAL;RIM / CORE (MINERAL GRAINS);PRIMARY/SECONDARY;INCLUSION TYPE;SPOT (INCLUSION);MINERAL (INCLUSION);RIM / CORE (INCLUSION);HOSTMINERAL (INCLUSION);HEATING;HEATING TEMPERATURE (?C);SIO2(WT%);TIO2(WT%);ZRO2(WT%);B2O3(WT%);AL2O3(WT%);CR2O3(WT%);LA2O3(WT%);CE2O3(WT%);Y2O3(WT%);V2O3(WT%);NB2O3(WT%);TA2O5(WT%);WO3(WT%);FE2O3T(WT%);FE2O3(WT%);FEOT(WT%);FEO(WT%);CAO(WT%);MGO(WT%);MNO(WT%);BAO(WT%);SRO(WT%);NIO(WT%);ZNO(WT%);CS2O(WT%);RB2O(WT%);K2O(WT%);;;;NA2O(WT%);P2O5(WT%);H2O(WT%);;;;H2OP(WT%);H2OM(WT%);CO2(WT%);C(WT%);F(WT%);CL(WT%);SO2(WT%);SO3(WT%);S(WT%);LOI(WT%);AL(WT%);TI(WT%);FE(WT%);MG(WT%);CA(WT%);K(WT%);NA(WT%);LI(PPM);BE(PPM);B(PPM);C(PPM);F(PPM);NA(PPM);MG(PPM);AL(PPM);P(PPM);S(PPM);CL(PPM);AR40(AT/G);AR40(CCMSTP/G);AR40(MOL/G);AR40(PPB);K(PPM);CA(PPM);SC(PPM);;;;TI(PPM);;;;V(PPM);CR(PPM);MN(PPM);FE(PPM);CO(PPM);NI(PPM);CU(PPM);ZN(PPM);GA(PPM);GE(PPM);AS(PPM);SE(PPM);BR(PPM);RB(PPM): altern. values or methods;;;;SR(PPM): altern. values or methods;;;;Y(PPM): altern. values or methods;;;;ZR(PPM): altern. values or methods;;;;NB(PPM): altern. values or methods;;;;MO(PPM): altern. values or methods;;;;AG(PPM);CD(PPM);IN(PPM);SN(PPM);SB(PPM);TE(PPM);CS(PPM);BA(PPM): altern. values or methods;;;;LA(PPM): altern. values or methods;;;;CE(PPM): altern. values or methods;;;;PR(PPM);ND(PPM): altern. values or methods;;;;SM(PPM): altern. values or methods;;;;EU(PPM);GD(PPM);TB(PPM);DY(PPM);HO(PPM);ER(PPM);TM(PPM);YB(PPM);LU(PPM);HF(PPM);TA(PPM);W(PPM);RE(PPM);AU(PPM);AU(PPB);HG(PPM);HG(PPB);TL(PPM);PB(PPM): altern. values or methods;;;;PB206(PPM);BI(PPM);TH(PPM): altern. values or methods;;;;U(PPM);ND143_ND144;ND143_ND144_INI;EPSILON_ND;EPSILON_ND_INI;SM147_ND144;SR87_SR86;SR87_SR86_INI;EPSILON_SR;EPSILON_SR_INI;RB87_SR86;PB206_PB204;PB206_PB204_INI;PB206_PB207;PB206_PB208;PB207_PB204;PB207_PB204_INI;PB207_PB206;PB208_PB204;PB208_PB204_INI;PB208_PB206;HF176_HF177;HF176_HF177_INI;EPSILON_HF_INI;LU176_HF177;YB176_HF177;AR36_AR39;AR36_AR40;AR37_AR39;AR38_AR39;AR39_AR40;AR40_AR36;AR40_AR39;PB206_U238;PB207_U235;PB208_TH232;TH232_PB204;TH232_U238;U235_PB204;U238_PB204;U238_PB206;D7LI(VS LSVEC);D18O(PER MIL);D18O(VS SMOW);D18O(VS VSMOW);D56FE(VS IRMM-014);D57FE(VS IRMM-014);DD(VS SMOW);ALBITE(MOL%);ANORTHITE(MOL%);CA OLIVINE(MOL%);ENSTATITE(MOL%);FAYALITE(MOL%);FORSTERITE(MOL%);FERROSILITE(MOL%);ORTHOCLASE(MOL%);TEPHROITE(MOL%);ULVOSPINEL(MOL%);WOLLASTONITE(MOL%);AGE(KA): altern. values or methods;;;;AGE(MA): altern. values or methods;;;;;;;;AGE_PB207_PB206(MA);AGE_PB207_U235(MA);AGE_PB206_U238(MA): altern. values or methods;;;;;;AGE_PB208_TH232(MA);
2009;[13983] POLIN V. F. (2009);samp. PN-44-422;;OKHOTSK-CHUKOTKA ARC / CHUKOTKA ARC - MESOZOIC / EASTERN CHUKOTKA SECTOR / AMGUEMA-KANCHALAN VOLCANIC FIELD;;65.17;-176.72;67.02;-178.23;;;OUTCROP;;;SUBAERIAL;VOLCANIC ROCK;TRACHYDACITE;;;63000000;63000000;CRETACEOUS;UPPER;;;;WHOLE ROCK;;;;;;;;;;;;;;;;;;;;;;;;;;;;;;;;;;;;;;;;;;;;;;;;;;;;;;;;;;;;;;;;;;;;;;;;;;;;;;;;;;;;;;;;;;;;;;;;;;;;;;;;55;ICPMS;;;260;ICPMS;;;;;;;;;;;;;;;;;;;;;;;;;;;;;;;;;;;;;;;28.5;ICPMS;;;6.41;ICPMS;;;;;;;;;;;;;;;;;;;;;18.9;ICPMS;;;;;4.85;ICPMS;;;1.74;0.512614;;;;0.135377;0.705221;;;;0.82098;18.183001;;;;15.404;;;38.021999;;;;;;;;;;;;;;;;;;16.36745;;0.04121;5.683485;;;;;;;;;;;;;;;;;;;;;;;;;;;;;;;;;;;;;;;;;
2010;[13990] KRATZMANN D. J. (2010);samp. HUD134;;ANDEAN ARC / SOUTHERN ANDEAN VOLCANIC ZONE / CHILE / HUDSON;STRATOVOLCANO, 3600 BP ERUPTION;-45.9;-72.97;-45.9;-72.97;;;OUTCROP;;;SUBAERIAL;VOLCANIC ROCK;TRACHYDACITE;;PUMICE LAPILLI;;;HOLOCENE;;;;;WHOLE ROCK;;;;;;;;;;;;;61.07;1.03;;;16.77;;;;;;;;;5.08;;;;2.85;1.31;0.14;;;;;;;2.72;XRF;;;5.1;0.29;;;;;;;;;;;;;;4.8;;;;;;;;;;;;;;;;;;;;;;;;;;;;;;;;;77;6;;;11;5;13;82;21;;;;;71;XRF;;;253;XRF;;;51;XRF;;;491;XRF;;;22;XRF;;;;;;;;;;;;;;885;XRF;;;72;XRF;;;120;XRF;;;;;;;;;;;;;;;;;;;;;;;;;;;;;;11;XRF;;;;;0;XRF;;;3;;;;;;;;;;;;;;;;;;;;;;;;;;;;;;;;;;;;;;;;;;;;;;;;;;;;;;;;;;;;;;;;;;;;;;;;;;;;;;;;
2010;[13990] KRATZMANN D. J. (2010);samp. HUD202;;ANDEAN ARC / SOUTHERN ANDEAN VOLCANIC ZONE / CHILE / HUDSON;STRATOVOLCANO, 3600 BP ERUPTION;-46.1228;-72.56;-46.1228;-72.56;;;OUTCROP;;;SUBAERIAL;VOLCANIC ROCK;TRACHYDACITE;;PUMICE LAPILLI;;;HOLOCENE;;;;;WHOLE ROCK;;;;;;;;;;;;;61.49;0.91;;;16.94;;;;;;;;;4.31;;;;2.18;0.91;0.13;;;;;;;2.85;XRF;;;5.3;0.22;;;;;;;;;;;;;;5.1;;;;;;;;;;;;;;;;;198;;;;;;;;13;XRF;;;;;;;47;18;;;1;3;11;79;21;;;;;74;XRF;;;222;XRF;;;54;XRF;;;547;XRF;;;26;XRF;;;;;;;;;;;;;;879;XRF;;;68;XRF;;;128;XRF;;;;;;;;;;;;;;;;;;;;;14;;;;;;;;;14;XRF;;;;;;;;;;;;;;;;;;;;;;;;;;;;;;;;;;;;;;;;;;;;;;;;;;;;;;;;;;;;;;;;;;;;;;;;;;;;;;;;;;;;;;;;;
2010;[13990] KRATZMANN D. J. (2010);samp. HUD203;241079;ANDEAN ARC / SOUTHERN ANDEAN VOLCANIC ZONE / CHILE / HUDSON;STRATOVOLCANO, 3600 BP ERUPTION;-46.1228;-72.56;-46.1228;-72.56;;;OUTCROP;;;SUBAERIAL;VOLCANIC ROCK;TRACHYDACITE;;PUMICE LAPILLI;;;HOLOCENE;;;;;WHOLE ROCK;;;;;;;;;;;;;62.26;0.89;;;16.36;;;;;;;;;4.16;;;;2.21;0.94;0.13;;;;;;;2.92;XRF;;;5.39;0.22;;;;;;;;;;;;;;4.4;;;;;;;;;;;;;;;;;185;;;;;;;;10;XRF;;;;;;;44;12;;;2;2;8;79;22;;;;;74;XRF;;;223;XRF;;;53;XRF;;;539;XRF;;;26;XRF;;;;;;;;;;;;;;869;XRF;;;60;XRF;;;113;XRF;;;;;;;;;;;;;;;;;;;;;13;;;;;;;;;10;XRF;;;;;;;;;;;;;;;;;;;;;;;;;;;;;;;;;;;;;;;;;;;;;;;;;;;;;;;;;;;;;;;;;;;;;;;;;;;;;;;;;;;;;;;;;
2010;[13990] KRATZMANN D. J. (2010);samp. HUD204;241011;ANDEAN ARC / SOUTHERN ANDEAN VOLCANIC ZONE / CHILE / HUDSON;STRATOVOLCANO, 3600 BP ERUPTION;-46.1228;-72.56;-46.1228;-72.56;;;OUTCROP;;;SUBAERIAL;VOLCANIC ROCK;TRACHYDACITE;;PUMICE LAPILLI;;;HOLOCENE;;;;;WHOLE ROCK;;;;;;;;;;;;;62.65;0.88;;;16.23;;;;;;;;;4.33;;;;2.3;1.17;0.13;;;;;;;2.93;XRF;;;5.36;0.22;;;;;;;;;;;;;;3.8;;;;;;;;;;;;;;;;;170;;;;;;;;12;XRF;;;;;;;43;14;;;0;3;9;83;20;;;;;76;XRF;;;217;XRF;;;54;XRF;;;541;XRF;;;26;XRF;;;;;;;;;;;;;;919;XRF;;;75;XRF;;;143;XRF;;;;;;;;;;;;;;;;;;;;;14;;;;;;;;;15;XRF;;;;;;;;;;;;;;;;;;;;;;;;;;;;;;;;;;;;;;;;;;;;;;;;;;;;;;;;;;;;;;;;;;;;;;;;;;;;;;;;;;;;;;;;;
2010;[13990] KRATZMANN D. J. (2010);samp. HUD136;;ANDEAN ARC / SOUTHERN ANDEAN VOLCANIC ZONE / CHILE / HUDSON;STRATOVOLCANO, 3600 BP ERUPTION;-45.9;-72.97;-45.9;-72.97;;;OUTCROP;;;SUBAERIAL;VOLCANIC ROCK;TRACHYDACITE;;PUMICE LAPILLI;;;HOLOCENE;;;;;WHOLE ROCK;;;;;;;;;;;;;61.96;0.88;;;15.56;;;;;;;;;4.22;;;;2.12;0.96;0.13;;;;;;;3.1;XRF;;;5.48;0.22;;;;;;;;;;;;;;3.8;;;;;;;;;;;;;;;;;;;;;;;;;;;;;;;;;50;1;;;2;4;7;77;20;;;;;79;XRF;;;205;XRF;;;52;XRF;;;528;XRF;;;23;XRF;;;;;;;;;;;;;;950;XRF;;;79;XRF;;;126;XRF;;;;;;;;;;;;;;;;;;;;;;;;;;;;;;15;XRF;;;;;4;XRF;;;4;;;;;;;;;;;;;;;;;;;;;;;;;;;;;;;;;;;;;;;;;;;;;;;;;;;;;;;;;;;;;;;;;;;;;;;;;;;;;;;;
2010;[13990] KRATZMANN D. J. (2010);samp. HUD202;;ANDEAN ARC / SOUTHERN ANDEAN VOLCANIC ZONE / CHILE / HUDSON;STRATOVOLCANO, 3600 BP ERUPTION;-46.1228;-72.56;-46.1228;-72.56;;;OUTCROP;;;SUBAERIAL;VOLCANIC ROCK;TRACHYDACITE;;PUMICE LAPILLI;;;HOLOCENE;;;;;MINERAL / COMPONENT (INCL. GROUNDMASS);PLAGIOCLASE;;PHENOCRYST;RIM;PRIMARY;;;;;;;;60.48;;;;25.49;;;;;;;;;;;0.5;;6.92;;;;;;;;;0.53;EMP (EPMA);;;6.74;;;;;;;;;;;;;;;;;;;;;;;;;;;;;;;;;;;;;;;;;;;;;;;;;;;;;;;;;;;;;;;;;;;;;;;;;;;;;;;;;;;;;;;;;;;;;;;;;;;;;;;;;;;;;;;;;;;;;;;;;;;;;;;;;;;;;;;;;;;;;;;;;;;;;;;;;;;;;;;;;;;;;;;;;;;;;;;;;;;;;;;;;;;;;61.76;35.06;;;;;;3.18;;;;;;;;;;;;;;;;;;;;;;;;;
2010;[13990] KRATZMANN D. J. (2010);samp. HUD202;;ANDEAN ARC / SOUTHERN ANDEAN VOLCANIC ZONE / CHILE / HUDSON;STRATOVOLCANO, 3600 BP ERUPTION;-46.1228;-72.56;-46.1228;-72.56;;;OUTCROP;;;SUBAERIAL;VOLCANIC ROCK;TRACHYDACITE;;PUMICE LAPILLI;;;HOLOCENE;;;;;MINERAL / COMPONENT (INCL. GROUNDMASS);PLAGIOCLASE;;PHENOCRYST;CORE;PRIMARY;;;;;;;;59.16;;;;25.8;;;;;;;;;;;0.5;;7.58;;;;;;;;;0.46;EMP (EPMA);;;6.37;;;;;;;;;;;;;;;;;;;;;;;;;;;;;;;;;;;;;;;;;;;;;;;;;;;;;;;;;;;;;;;;;;;;;;;;;;;;;;;;;;;;;;;;;;;;;;;;;;;;;;;;;;;;;;;;;;;;;;;;;;;;;;;;;;;;;;;;;;;;;;;;;;;;;;;;;;;;;;;;;;;;;;;;;;;;;;;;;;;;;;;;;;;;;58.62;38.56;;;;;;2.1;;;;;;;;;;;;;;;;;;;;;;;;;
2010;[13990] KRATZMANN D. J. (2010);samp. HUD203;241079;ANDEAN ARC / SOUTHERN ANDEAN VOLCANIC ZONE / CHILE / HUDSON;STRATOVOLCANO, 3600 BP ERUPTION;-46.1228;-72.56;-46.1228;-72.56;;;OUTCROP;;;SUBAERIAL;VOLCANIC ROCK;TRACHYDACITE;;PUMICE LAPILLI;;;HOLOCENE;;;;;MINERAL / COMPONENT (INCL. GROUNDMASS);PLAGIOCLASE;;PHENOCRYST;RIM;PRIMARY;;;;;;;;60.34;;;;24.57;;;;;;;;;;;0.51;;6.09;;;;;;;;;0.56;EMP (EPMA);;;6.94;;;;;;;;;;;;;;;;;;;;;;;;;;;;;;;;;;;;;;;;;;;;;;;;;;;;;;;;;;;;;;;;;;;;;;;;;;;;;;;;;;;;;;;;;;;;;;;;;;;;;;;;;;;;;;;;;;;;;;;;;;;;;;;;;;;;;;;;;;;;;;;;;;;;;;;;;;;;;;;;;;;;;;;;;;;;;;;;;;;;;;;;;;;;;65;31.52;;;;;;3.47;;;;;;;;;;;;;;;;;;;;;;;;;
2010;[13990] KRATZMANN D. J. (2010);samp. HUD203;241079;ANDEAN ARC / SOUTHERN ANDEAN VOLCANIC ZONE / CHILE / HUDSON;STRATOVOLCANO, 3600 BP ERUPTION;-46.1228;-72.56;-46.1228;-72.56;;;OUTCROP;;;SUBAERIAL;VOLCANIC ROCK;TRACHYDACITE;;PUMICE LAPILLI;;;HOLOCENE;;;;;MINERAL / COMPONENT (INCL. GROUNDMASS);PLAGIOCLASE;;PHENOCRYST;CORE;PRIMARY;;;;;;;;60.34;;;;24.57;;;;;;;;;;;0.51;;6.09;;;;;;;;;0.56;EMP (EPMA);;;6.94;;;;;;;;;;;;;;;;;;;;;;;;;;;;;;;;;;;;;;;;;;;;;;;;;;;;;;;;;;;;;;;;;;;;;;;;;;;;;;;;;;;;;;;;;;;;;;;;;;;;;;;;;;;;;;;;;;;;;;;;;;;;;;;;;;;;;;;;;;;;;;;;;;;;;;;;;;;;;;;;;;;;;;;;;;;;;;;;;;;;;;;;;;;;;65;31.52;;;;;;3.47;;;;;;;;;;;;;;;;;;;;;;;;;
2010;[13990] KRATZMANN D. J. (2010);samp. HUD204;241011;ANDEAN ARC / SOUTHERN ANDEAN VOLCANIC ZONE / CHILE / HUDSON;STRATOVOLCANO, 3600 BP ERUPTION;-46.1228;-72.56;-46.1228;-72.56;;;OUTCROP;;;SUBAERIAL;VOLCANIC ROCK;TRACHYDACITE;;PUMICE LAPILLI;;;HOLOCENE;;;;;MINERAL / COMPONENT (INCL. GROUNDMASS);PLAGIOCLASE;;PHENOCRYST;RIM;PRIMARY;;;;;;;;60;;;;25.35;;;;;;;;;;;0.5;;6.82;;;;;;;;;0.5;EMP (EPMA);;;6.83;;;;;;;;;;;;;;;;;;;;;;;;;;;;;;;;;;;;;;;;;;;;;;;;;;;;;;;;;;;;;;;;;;;;;;;;;;;;;;;;;;;;;;;;;;;;;;;;;;;;;;;;;;;;;;;;;;;;;;;;;;;;;;;;;;;;;;;;;;;;;;;;;;;;;;;;;;;;;;;;;;;;;;;;;;;;;;;;;;;;;;;;;;;;;62.52;34.49;;;;;;3;;;;;;;;;;;;;;;;;;;;;;;;;
2010;[13990] KRATZMANN D. J. (2010);samp. HUD204;241011;ANDEAN ARC / SOUTHERN ANDEAN VOLCANIC ZONE / CHILE / HUDSON;STRATOVOLCANO, 3600 BP ERUPTION;-46.1228;-72.56;-46.1228;-72.56;;;OUTCROP;;;SUBAERIAL;VOLCANIC ROCK;TRACHYDACITE;;PUMICE LAPILLI;;;HOLOCENE;;;;;MINERAL / COMPONENT (INCL. GROUNDMASS);PLAGIOCLASE;;PHENOCRYST;CORE;PRIMARY;;;;;;;;59.83;;;;25.58;;;;;;;;;;;0.45;;6.98;;;;;;;;;0.51;EMP (EPMA);;;6.68;;;;;;;;;;;;;;;;;;;;;;;;;;;;;;;;;;;;;;;;;;;;;;;;;;;;;;;;;;;;;;;;;;;;;;;;;;;;;;;;;;;;;;;;;;;;;;;;;;;;;;;;;;;;;;;;;;;;;;;;;;;;;;;;;;;;;;;;;;;;;;;;;;;;;;;;;;;;;;;;;;;;;;;;;;;;;;;;;;;;;;;;;;;;;61.44;35.46;;;;;;2.24;;;;;;;;;;;;;;;;;;;;;;;;;
2010;[13990] KRATZMANN D. J. (2010);samp. HUD202;;ANDEAN ARC / SOUTHERN ANDEAN VOLCANIC ZONE / CHILE / HUDSON;STRATOVOLCANO, 3600 BP ERUPTION;-46.1228;-72.56;-46.1228;-72.56;;;OUTCROP;;;SUBAERIAL;VOLCANIC ROCK;TRACHYDACITE;;PUMICE LAPILLI;;;HOLOCENE;;;;;MINERAL / COMPONENT (INCL. GROUNDMASS);GLASS;;;;PRIMARY;;;;;;;;67.93;0.6;;;15.14;;;;;;;;;;;3.05;;1.63;0.64;0.14;;;;;;;3.48;EMP (EPMA);;;6.3;0.11;;;;;;;;;;;;;;;;;;;;;;;;;;;;;;;;;;;;;;;;;;;;;;;;;;;;;;;;;;;;;;;;;;;;;;;;;;;;;;;;;;;;;;;;;;;;;;;;;;;;;;;;;;;;;;;;;;;;;;;;;;;;;;;;;;;;;;;;;;;;;;;;;;;;;;;;;;;;;;;;;;;;;;;;;;;;;;;;;;;;;;;;;;;;;;;;;;;;;;;;;;;;;;;;;;;;;;;;;;;;
2010;[13990] KRATZMANN D. J. (2010);samp. HUD203;241079;ANDEAN ARC / SOUTHERN ANDEAN VOLCANIC ZONE / CHILE / HUDSON;STRATOVOLCANO, 3600 BP ERUPTION;-46.1228;-72.56;-46.1228;-72.56;;;OUTCROP;;;SUBAERIAL;VOLCANIC ROCK;TRACHYDACITE;;PUMICE LAPILLI;;;HOLOCENE;;;;;MINERAL / COMPONENT (INCL. GROUNDMASS);GLASS;;;;PRIMARY;;;;;;;;67.23;0.63;;;15.11;;;;;;;;;;;3;;1.55;0.62;0.14;;;;;;;3.43;EMP (EPMA);;;6.44;0.1;;;;;;;;;;;;;;;;;;;;;;;;;;;;;;;;;;;;;;;;;;;;;;;;;;;;;;;;;;;;;;;;;;;;;;;;;;;;;;;;;;;;;;;;;;;;;;;;;;;;;;;;;;;;;;;;;;;;;;;;;;;;;;;;;;;;;;;;;;;;;;;;;;;;;;;;;;;;;;;;;;;;;;;;;;;;;;;;;;;;;;;;;;;;;;;;;;;;;;;;;;;;;;;;;;;;;;;;;;;;
2010;[13990] KRATZMANN D. J. (2010);samp. HUD204;241011;ANDEAN ARC / SOUTHERN ANDEAN VOLCANIC ZONE / CHILE / HUDSON;STRATOVOLCANO, 3600 BP ERUPTION;-46.1228;-72.56;-46.1228;-72.56;;;OUTCROP;;;SUBAERIAL;VOLCANIC ROCK;TRACHYDACITE;;PUMICE LAPILLI;;;HOLOCENE;;;;;MINERAL / COMPONENT (INCL. GROUNDMASS);GLASS;;;;PRIMARY;;;;;;;;68.49;0.68;;;15.34;;;;;;;;;;;3.05;;1.67;0.64;0.11;;;;;;;3.48;EMP (EPMA);;;6.49;0.12;;;;;;;;;;;;;;;;;;;;;;;;;;;;;;;;;;;;;;;;;;;;;;;;;;;;;;;;;;;;;;;;;;;;;;;;;;;;;;;;;;;;;;;;;;;;;;;;;;;;;;;;;;;;;;;;;;;;;;;;;;;;;;;;;;;;;;;;;;;;;;;;;;;;;;;;;;;;;;;;;;;;;;;;;;;;;;;;;;;;;;;;;;;;;;;;;;;;;;;;;;;;;;;;;;;;;;;;;;;;
2010;[13990] KRATZMANN D. J. (2010);samp. HUD203;241079;ANDEAN ARC / SOUTHERN ANDEAN VOLCANIC ZONE / CHILE / HUDSON;STRATOVOLCANO, 3600 BP ERUPTION;-46.1228;-72.56;-46.1228;-72.56;;;OUTCROP;;;SUBAERIAL;VOLCANIC ROCK;TRACHYDACITE;;PUMICE LAPILLI;;;HOLOCENE;;;;;INCLUSION;;;;;;GLASS INCLUSION;#1;;;PLAGIOCLASE/PYROXENE;FALSE;;66.44;0.82;;;15.09;;;;;;;;;;;3.12;;1.69;0.75;0.1;;;;;;;3.45;EMP (EPMA);;;5.97;0.11;2.5;FTIR;2.96;IGN;;;0;;;;;;;;;;;;;;;;;;;;;;;;;;;;;;;;;;;;;;;;;;;;;;;;;;;;;;;;;;;;;;;;;;;;;;;;;;;;;;;;;;;;;;;;;;;;;;;;;;;;;;;;;;;;;;;;;;;;;;;;;;;;;;;;;;;;;;;;;;;;;;;;;;;;;;;;;;;;;;;;;;;;;;;;;;;;;;;;;;;;;;;;;;;;;;;;;;;;;;;;;;;;;;;;;;;;;
2010;[13990] KRATZMANN D. J. (2010);samp. HUD202;;ANDEAN ARC / SOUTHERN ANDEAN VOLCANIC ZONE / CHILE / HUDSON;STRATOVOLCANO, 3600 BP ERUPTION;-46.1228;-72.56;-46.1228;-72.56;;;OUTCROP;;;SUBAERIAL;VOLCANIC ROCK;TRACHYDACITE;;PUMICE LAPILLI;;;HOLOCENE;;;;;INCLUSION;;;;;;GLASS INCLUSION;#1;;;PLAGIOCLASE/PYROXENE;FALSE;;66.2;0.87;;;15.1;;;;;;;;;;;3.28;;1.76;0.82;0.14;;;;;;;3.42;EMP (EPMA);;;6.08;0.14;2.2;FTIR;1.94;IGN;;;0;;;;;;;;;;;;;;;;;;;;;;;;;;;;;;;;;;;;;;;;;;;;;;;;;;;;;;;;;;;;;;;;;;;;;;;;;;;;;;;;;;;;;;;;;;;;;;;;;;;;;;;;;;;;;;;;;;;;;;;;;;;;;;;;;;;;;;;;;;;;;;;;;;;;;;;;;;;;;;;;;;;;;;;;;;;;;;;;;;;;;;;;;;;;;;;;;;;;;;;;;;;;;;;;;;;;;
2010;[14395] BLIGHT J. H. S. (2010);samp. 55.1A;;CENTRAL ASIAN FOLDBELT - PALEOZOIC / MONGOLIA - PALEOZOIC / KHANGAI OROGEN / OYUT ULAAN VOLCANIC GROUP / GURVAN MORIN HÖNDIY FORMATION;SAYKHANDULAAN INLIER, GOBI ALTAI;44;108;45;109;;;OUTCROP;;;SUBAERIAL;VOLCANIC ROCK;TRACHYDACITE;;;;;CARBONIFEROUS;;;;;WHOLE ROCK;;;;;;;;;;;;;63.52;0.59;;;16.72;;;;;;;;;4.09;;;;1.42;1.58;0.03;;;;;;;3.52;XRF;;;5.45;0.16;;;;;;;;;;;;0.24;;;;;;;;;;;;;;;;;;;;;;;;;;;16.19;XRF;;;;;;;204.1;867.78;;;11.19;5.26;79.39;32.29;15.36;;38.47;;;56.8;XRF;;;1270.68;XRF;;;12.94;XRF;;;123.33;XRF;;;4.04;XRF;;;3.9;XRF;;;;;;;;;2.88;1798.76;XRF;;;11.39;XRF;;;18.5;XRF;;;;13.84;XRF;;;;;;;;;;;;;;;;;;;;;;;;;11.08;XRF;;;;;4.44;XRF;;;0.47;;;;;;;;;;;;;;;;;;;;;;;;;;;;;;;;;;;;;;;;;;;;;;;;;;;;;;;;;;;;;;;;;;;;;;;;;;;;;;;;
2010;[14395] BLIGHT J. H. S. (2010);samp. 3/08_2;;CENTRAL ASIAN FOLDBELT - PALEOZOIC / MONGOLIA - PALEOZOIC / KHANGAI OROGEN / OYUT ULAAN VOLCANIC GROUP / SHARGYN MOGHAI FORMATION;SAYKHANDULAAN INLIER, GOBI ALTAI;44;108;45;109;;;OUTCROP;;;SUBAERIAL;VOLCANIC ROCK;TRACHYDACITE;;;;;CARBONIFEROUS;;;;;WHOLE ROCK;;;;;;;;;;;;;64.62;0.51;;;16.89;;;;;;;;;4.27;;;;1.85;1.24;0.06;;;;;;;3.02;XRF;;;5.4;0.23;;;;;;;;;;;;0.01;;;;;;;;;;;;;;;;;;;;;;;;;;;6.94;XRF;;;;;;;93.56;35.64;;;13.02;26.97;48.39;53.7;18.77;;2.83;;;54.97;XRF;;;927.56;XRF;;;10.73;XRF;;;120.4;XRF;;;2.91;XRF;;;0.54;XRF;;;;;;;;;1;964.35;XRF;;;15.83;XRF;;;21.25;XRF;;;;13.57;XRF;;;;;;;;;;;;;;;;;;;;;;;;;6.71;XRF;;;;;6.98;XRF;;;1.68;;;;;;;;;;;;;;;;;;;;;;;;;;;;;;;;;;;;;;;;;;;;;;;;;;;;;;;;;;;;;;;;;;;;;;;;;;;;;;;;
2010;[14417] AHMADZADEH G. (2010);samp. DA14;;ANATOLIA-IRAN BELT / IRAN / URUMIEH-DOKHTAR ARC;;38.557;45.537;38.557;45.537;;;OUTCROP;;;SUBAERIAL;VOLCANIC ROCK;TRACHYDACITE;;;;;;;;;;WHOLE ROCK;;;;;;;;;;;;;62.4;0.55;;;15.85;;;;;;;;;3.96;;;;5.04;2.21;0.06;;;;;;;2.87;XRF;;;5.31;0.36;;;;;;;;;;;;;;1.28;;;;;;;;;;;;;;;;;;;;;;;;;;;;;;;;;82;150;;;16.4;49;57;72;20;;;;;69;ICPMS;;;1045;ICPMS;;;12.7;ICPMS;;;193;ICPMS;;;20.4;ICPMS;;;2;ICPMS;;;0;;;2;;;2.29;1455;ICPMS;;;61.4;ICPMS;;;105;ICPMS;;;10.95;38.6;ICPMS;;;6.2;ICPMS;;;1.48;5.58;0.65;2.84;0.51;1.44;0.16;1.1;0.17;4.8;1.2;7;;;;;;;34;ICPMS;;;;;21.6;ICPMS;;;6.82;;;;;;;;;;;;;;;;;;;;;;;;;;;;;;;;;;;;;;;;;;;;;;;;;;;;;;;;;;;;;;;;;;;;;;;;;;;;;;;;
2010;[14417] AHMADZADEH G. (2010);samp. L-1;;ANATOLIA-IRAN BELT / IRAN / URUMIEH-DOKHTAR ARC;;38.623;45.507;38.623;45.507;;;OUTCROP;;;SUBAERIAL;VOLCANIC ROCK;TRACHYDACITE;;;;;;;;;;WHOLE ROCK;;;;;;;;;;;;;65.1;0.46;;;16.3;;;;;;;;;3.86;;;;3.86;0.98;0.08;;;;;;;3.77;XRF;;;4.3;0.21;;;;;;;;;;;;;;0.82;;;;;;;;;;;;;;;;;;;;;;;;;;;;;;;;;81;80;;;8.7;8;24;74;19.6;;;;;142.5;ICPMS;;;972;ICPMS;;;18;ICPMS;;;203;ICPMS;;;17.4;ICPMS;;;3;ICPMS;;;0;;;1;;;5.51;1070;ICPMS;;;42.6;ICPMS;;;75.3;ICPMS;;;7.9;27.4;ICPMS;;;4.78;ICPMS;;;1.26;4.76;0.63;3.28;0.64;1.9;0.27;1.88;0.31;4.9;1.2;18;;;;;;;40;ICPMS;;;;;19.2;ICPMS;;;6.19;;;;;;;;;;;;;;;;;;;;;;;;;;;;;;;;;;;;;;;;;;;;;;;;;;;;;;;;;;;;;;;;;;;;;;;;;;;;;;;;
2010;[14587] LEBEDEV V. A. (2010);samp. 07-14;;ANATOLIA-IRAN BELT / TURKEY / EASTERN ANATOLIAN VOLCANIC BELT / ETRUSK;LAKE VAN AREA;39.01314;43.56471;39.01314;43.56471;;;OUTCROP;;;SUBAERIAL;VOLCANIC ROCK;TRACHYDACITE;;;;;PLIOCENE;;;;;WHOLE ROCK;;;;;;;;;;;;;;;;;;;;;;;;;;;;;;;;;;;;;;;;;;;;;;;;;;;;;;;;;;;;;;;;3.08;;;;;;;;;;;;;;9.02E-06;;;;;;;;;;;;;;;;;;;;;;;;;;;;;;;;;;;;;;;;;;;;;;;;;;;;;;;;;;;;;;;;;;;;;;;;;;;;;;;;;;;;;;;;;;;;;;;;;;;;;;;;;;;;;;;;;;;;;;;;;;;;;;;;;;;;;;;;;;;;;;;;;;;;;;;;;;;;;;;;;;;;;;;;;4.22;K-AR;;;;;;;;;;;;;;;;
2010;[14587] LEBEDEV V. A. (2010);samp. 07-16;;ANATOLIA-IRAN BELT / TURKEY / EASTERN ANATOLIAN VOLCANIC BELT / ETRUSK;LAKE VAN AREA;39.00531;43.65535;39.00531;43.65535;;;OUTCROP;;;SUBAERIAL;VOLCANIC ROCK;TRACHYDACITE;;;;;PLIOCENE;;;;;WHOLE ROCK;;;;;;;;;;;;;;;;;;;;;;;;;;;;;;;;;;;;;;;;;;;;;;;;;;;;;;;;;;;;;;;;3.68;;;;;;;;;;;;;;1.019E-05;;;;;;;;;;;;;;;;;;;;;;;;;;;;;;;;;;;;;;;;;;;;;;;;;;;;;;;;;;;;;;;;;;;;;;;;;;;;;;;;;;;;;;;;;;;;;;;;;;;;;;;;;;;;;;;;;;;;;;;;;;;;;;;;;;;;;;;;;;;;;;;;;;;;;;;;;;;;;;;;;;;;;;;;;3.99;K-AR;;;;;;;;;;;;;;;;
2004;[14865] CALLEGARI E. (2004);samp. ZC 698;;ADRIA DOMAIN / SOUTHERN ALPS / VENETO VOLCANIC PROVINCE / COVER SERIES;;45.21;7.58;45.21;7.58;;;OUTCROP;;;SUBAERIAL;VOLCANIC ROCK;TRACHYDACITE;;SHOSHONITIC LAVA;;;OLIGOCENE;;;;;WHOLE ROCK;;;;;;;;;;;;;65.08;0.59;;;14.83;;;;;;;;;;;4.54;;2.49;1.53;0.08;;;;;;;5.53;XRF;;;3.51;0.46;;;;;;;;;;;;;;1.32;;;;;;;;;;;;;;;;;;;;;;;;;13;XRF;;;;;;;73;16;;;;13;35;42;;;;;;282;XRF;;;807;XRF;;;32;XRF;;;382;XRF;;;41;XRF;;;;;;;;;;;;;;2719;XRF;;;65.2;ICPAES;;;135;ICPAES;;;;66.4;ICPAES;;;13.2;ICPAES;;;2.32;8.58;;5.19;;2.5;;2.49;0.35;;;;;;;;;;;;;;;;;;;;;0.5122;;;;;0.71175;;;;;;;;;;;;;;;;;;;;;;;;;;;;;;;;;;;;;;;;;;;;;;;;;;;;;;;;;;;;;;;;;;;;;;;;;;
2004;[14865] CALLEGARI E. (2004);samp. ZC 698;;ADRIA DOMAIN / SOUTHERN ALPS / VENETO VOLCANIC PROVINCE / COVER SERIES;;45.21;7.58;45.21;7.58;;;OUTCROP;;;SUBAERIAL;VOLCANIC ROCK;TRACHYDACITE;;SHOSHONITIC LAVA;;;OLIGOCENE;;;;;MINERAL / COMPONENT (INCL. GROUNDMASS);PLAGIOCLASE;;;CORE;PRIMARY;;;;;;;;64.62;0;;;22.45;;;;;;;;;;0;;0.05;2.05;0.15;0.18;;;;;;;1.11;EMP (EPMA);;;7.94;;;;;;;;;;;;;;;;;;;;;;;;;;;;;;;;;;;;;;;;;;;;;;;;;;;;;;;;;;;;;;;;;;;;;;;;;;;;;;;;;;;;;;;;;;;;;;;;;;;;;;;;;;;;;;;;;;;;;;;;;;;;;;;;;;;;;;;;;;;;;;;;;;;;;;;;;;;;;;;;;;;;;;;;;;;;;;;;;;;;;;;;;;;;;81;11.6;;;;;;7.4;;;;;;;;;;;;;;;;;;;;;;;;;
2004;[14865] CALLEGARI E. (2004);samp. ZC 698;;ADRIA DOMAIN / SOUTHERN ALPS / VENETO VOLCANIC PROVINCE / COVER SERIES;;45.21;7.58;45.21;7.58;;;OUTCROP;;;SUBAERIAL;VOLCANIC ROCK;TRACHYDACITE;;SHOSHONITIC LAVA;;;OLIGOCENE;;;;;MINERAL / COMPONENT (INCL. GROUNDMASS);PLAGIOCLASE;;;CORE;PRIMARY;;;;;;;;68.24;0.26;;;19.64;;;;;;;;;;0;;0.11;0.65;0;0.1;;;;;;;1.49;EMP (EPMA);;;9.1;;;;;;;;;;;;;;;;;;;;;;;;;;;;;;;;;;;;;;;;;;;;;;;;;;;;;;;;;;;;;;;;;;;;;;;;;;;;;;;;;;;;;;;;;;;;;;;;;;;;;;;;;;;;;;;;;;;;;;;;;;;;;;;;;;;;;;;;;;;;;;;;;;;;;;;;;;;;;;;;;;;;;;;;;;;;;;;;;;;;;;;;;;;;;87.2;3.4;;;;;;9.4;;;;;;;;;;;;;;;;;;;;;;;;;