Year;CITATION;SAMPLE NAME;UNIQUE_ID;LOCATION;LOCATION COMMENT;LATITUDE (MIN.);LONGITUDE (MIN.);LATITUDE (MAX.);LONGITUDE (MAX.);ELEVATION (MIN.);ELEVATION (MAX.);SAMPLING TECHNIQUE;DRILLING DEPTH (MIN.);DRILLING DEPTH (MAX.);LAND/SEA (SAMPLING);ROCK TYPE;ROCK NAME;ROCK TEXTURE;SAMPLE COMMENT;AGE (MIN.);AGE (MAX.);GEOLOGICAL AGE;GEOLOGICAL AGE PREFIX;ERUPTION YEAR;ALTERATION;ALTERATION TYPE;TYPE OF MATERIAL;MINERAL / COMPONENT;SPOT (MINERAL);CRYSTAL;RIM / CORE (MINERAL GRAINS);PRIMARY/SECONDARY;INCLUSION TYPE;SPOT (INCLUSION);MINERAL (INCLUSION);RIM / CORE (INCLUSION);HOSTMINERAL (INCLUSION);HEATING;HEATING TEMPERATURE (?C);SIO2(WT%);TIO2(WT%);ZRO2(WT%);B2O3(WT%);AL2O3(WT%);CR2O3(WT%);LA2O3(WT%);CE2O3(WT%);Y2O3(WT%);V2O3(WT%);NB2O3(WT%);TA2O5(WT%);WO3(WT%);FE2O3T(WT%);FE2O3(WT%);FEOT(WT%);FEO(WT%);CAO(WT%);MGO(WT%);MNO(WT%);BAO(WT%);SRO(WT%);NIO(WT%);ZNO(WT%);CS2O(WT%);RB2O(WT%);K2O(WT%);;;;NA2O(WT%);P2O5(WT%);H2O(WT%);;;;H2OP(WT%);H2OM(WT%);CO2(WT%);C(WT%);F(WT%);CL(WT%);SO2(WT%);SO3(WT%);S(WT%);LOI(WT%);AL(WT%);TI(WT%);FE(WT%);MG(WT%);CA(WT%);K(WT%);NA(WT%);LI(PPM);BE(PPM);B(PPM);C(PPM);F(PPM);NA(PPM);MG(PPM);AL(PPM);P(PPM);S(PPM);CL(PPM);AR40(AT/G);AR40(CCMSTP/G);AR40(MOL/G);AR40(PPB);K(PPM);CA(PPM);SC(PPM);;;;TI(PPM);;;;V(PPM);CR(PPM);MN(PPM);FE(PPM);CO(PPM);NI(PPM);CU(PPM);ZN(PPM);GA(PPM);GE(PPM);AS(PPM);SE(PPM);BR(PPM);RB(PPM): altern. values or methods;;;;SR(PPM): altern. values or methods;;;;Y(PPM): altern. values or methods;;;;ZR(PPM): altern. values or methods;;;;NB(PPM): altern. values or methods;;;;MO(PPM): altern. values or methods;;;;AG(PPM);CD(PPM);IN(PPM);SN(PPM);SB(PPM);TE(PPM);CS(PPM);BA(PPM): altern. values or methods;;;;LA(PPM): altern. values or methods;;;;CE(PPM): altern. values or methods;;;;PR(PPM);ND(PPM): altern. values or methods;;;;SM(PPM): altern. values or methods;;;;EU(PPM);GD(PPM);TB(PPM);DY(PPM);HO(PPM);ER(PPM);TM(PPM);YB(PPM);LU(PPM);HF(PPM);TA(PPM);W(PPM);RE(PPM);AU(PPM);AU(PPB);HG(PPM);HG(PPB);TL(PPM);PB(PPM): altern. values or methods;;;;PB206(PPM);BI(PPM);TH(PPM): altern. values or methods;;;;U(PPM);ND143_ND144;ND143_ND144_INI;EPSILON_ND;EPSILON_ND_INI;SM147_ND144;SR87_SR86;SR87_SR86_INI;EPSILON_SR;EPSILON_SR_INI;RB87_SR86;PB206_PB204;PB206_PB204_INI;PB206_PB207;PB206_PB208;PB207_PB204;PB207_PB204_INI;PB207_PB206;PB208_PB204;PB208_PB204_INI;PB208_PB206;HF176_HF177;HF176_HF177_INI;EPSILON_HF_INI;LU176_HF177;YB176_HF177;AR36_AR39;AR36_AR40;AR37_AR39;AR38_AR39;AR39_AR40;AR40_AR36;AR40_AR39;PB206_U238;PB207_U235;PB208_TH232;TH232_PB204;TH232_U238;U235_PB204;U238_PB204;U238_PB206;D7LI(VS LSVEC);D18O(PER MIL);D18O(VS SMOW);D18O(VS VSMOW);D56FE(VS IRMM-014);D57FE(VS IRMM-014);DD(VS SMOW);ALBITE(MOL%);ANORTHITE(MOL%);CA OLIVINE(MOL%);ENSTATITE(MOL%);FAYALITE(MOL%);FORSTERITE(MOL%);FERROSILITE(MOL%);ORTHOCLASE(MOL%);TEPHROITE(MOL%);ULVOSPINEL(MOL%);WOLLASTONITE(MOL%);AGE(KA): altern. values or methods;;;;AGE(MA): altern. values or methods;;;;;;;;AGE_PB207_PB206(MA);AGE_PB207_U235(MA);AGE_PB206_U238(MA): altern. values or methods;;;;;;AGE_PB208_TH232(MA);
2003;[8774] LLAMBIAS E. J. (2003);samp. PU 7;;SIERRAS_ARGENTINA / ARGENTINA / CORDON DEL PORTILLO / CERRO TRALMA / CHOIYOI GROUP;CORDILLERA FRONTAL;-36.98;-67.17;-36.98;-67.17;;;OUTCROP;;;SUBAERIAL;VOLCANIC ROCK;TRACHYDACITE;;IGNIMBRITE;;;MESOZOIC;;;;;WHOLE ROCK;;;;;;;;;;;;;66.41;0.47;;;15.36;;;;;;;;;3.61;;;;3.02;1.25;0.07;;;;;;;3.18;ICPAES;;;3.6;0.17;;;;;;;;;;;;;;1.42;;;;;;;;;;;;;;;;;;;;;;;;;;;;;;;;;82;88;;;18;58;;;21;;;;;103;ICPMS;;;423;ICPMS;;;23.8;ICPMS;;;222;ICPMS;;;9.9;ICPMS;;;;;;;;;;;;;1.5;1030;ICPMS;;;36.79;ICPMS;;;74.88;ICPMS;;;7.72;28.78;ICPMS;;;5.28;ICPMS;;;1.27;4.26;0.68;3.79;0.75;2.24;0.35;2.39;0.34;5.7;1.5;;;;;;;0.36;20;ICPMS;;;;;10.8;ICPMS;;;2.61;;;;;;;;;;;;;;;;;;;;;;;;;;;;;;;;;;;;;;;;;;;;;;;;;;;;;;;;;;;;;;;;;;;;;;;;;;;;;;;;
2006;[9154] RICHARDS J. P. (2006);samp. AR100;;ANDEAN ARC / CENTRAL ANDEAN VOLCANIC ZONE / ARGENTINA / ANTOFALLA VOLCANIC COMPLEX;CO. ONAS (E);-25.5416;-67.6358;-25.5416;-67.6358;;;OUTCROP;;;SUBAERIAL;VOLCANIC ROCK;TRACHYDACITE;;;;;;;;;;MINERAL / COMPONENT (INCL. GROUNDMASS);HORNBLENDE;;;;PRIMARY;;;;;;;;;;;;;;;;;;;;;;;;;;;;;;;;;;;;;;;;;;;;;;;;;;;;;;;;;;;;;;;;;;;;;;;;;;;;;;;;;;;;;;;;;;;;;;;;;;;;;;;;;;;;;;;;;;;;;;;;;;;;;;;;;;;;;;;;;;;;;;;;;;;;;;;;;;;;;;;;;;;;;;;;;;;;;;;;;;;;;;;;;;;;;;;;;;;;;;;;;;;;;0.019;;4.687;0.409;;292;7.351;;;;;;;;;;;;;;;;;;;;;;;;;;;;;;;9.84;AR-AR;9.77;AR-AR;10.14;AR-AR;10.14;AR-AR;;;;;;;;;;
2006;[9154] RICHARDS J. P. (2006);samp. AR257;;ANDEAN ARC / CENTRAL ANDEAN VOLCANIC ZONE / ARGENTINA / ANTOFALLA VOLCANIC COMPLEX;CO. ONAS (W);-25.4789;-67.9623;-25.4789;-67.9623;;;OUTCROP;;;SUBAERIAL;VOLCANIC ROCK;TRACHYDACITE;;;;;;;;;;MINERAL / COMPONENT (INCL. GROUNDMASS);HORNBLENDE;;;;PRIMARY;;;;;;;;;;;;;;;;;;;;;;;;;;;;;;;;;;;;;;;;;;;;;;;;;;;;;;;;;;;;;;;;;;;;;;;;;;;;;;;;;;;;;;;;;;;;;;;;;;;;;;;;;;;;;;;;;;;;;;;;;;;;;;;;;;;;;;;;;;;;;;;;;;;;;;;;;;;;;;;;;;;;;;;;;;;;;;;;;;;;;;;;;;;;;;;;;;;;;;;;;;;;;0.014;;5.281;0.345;;296;5.666;;;;;;;;;;;;;;;;;;;;;;;;;;;;;;;9.79;AR-AR;9.6;AR-AR;10.11;AR-AR;10.11;AR-AR;;;;;;;;;;
2006;[9154] RICHARDS J. P. (2006);samp. AR221;;ANDEAN ARC / CENTRAL ANDEAN VOLCANIC ZONE / ARGENTINA / ANTOFALLA VOLCANIC COMPLEX;CO. ONAS (W);-25.4625;-68.0279;-25.4625;-68.0279;;;OUTCROP;;;SUBAERIAL;VOLCANIC ROCK;TRACHYDACITE;;;;;;;;;;MINERAL / COMPONENT (INCL. GROUNDMASS);HORNBLENDE;;;;PRIMARY;;;;;;;;;;;;;;;;;;;;;;;;;;;;;;;;;;;;;;;;;;;;;;;;;;;;;;;;;;;;;;;;;;;;;;;;;;;;;;;;;;;;;;;;;;;;;;;;;;;;;;;;;;;;;;;;;;;;;;;;;;;;;;;;;;;;;;;;;;;;;;;;;;;;;;;;;;;;;;;;;;;;;;;;;;;;;;;;;;;;;;;;;;;;;;;;;;;;;;;;;;;;;0.022;;6.092;0.319;;292;7.752;;;;;;;;;;;;;;;;;;;;;;;;;;;;;;;9.52;AR-AR;9.64;AR-AR;9.23;AR-AR;9.23;AR-AR;;;;;;;;;;
2006;[9154] RICHARDS J. P. (2006);samp. AR100;;ANDEAN ARC / CENTRAL ANDEAN VOLCANIC ZONE / ARGENTINA / ANTOFALLA VOLCANIC COMPLEX;CO. ONAS (E);-25.5416;-67.6358;-25.5416;-67.6358;;;OUTCROP;;;SUBAERIAL;VOLCANIC ROCK;TRACHYDACITE;;;;;;;;;;WHOLE ROCK;;;;;;;;;;;;;60.8;0.82;;;15.9;;;;;;;;;;4.84;;;5.21;2.28;0.08;;;;;;;3.55;XRF;;;3.84;0.27;;;;;;;;;;;;;;1.45;;;;;;;;37.8;;;;;;;;;;;;;;;;;10.18;ICPMS;;;;;;;;;;;;;;;;;;;;127;ICPMS;;;558;ICPMS;;;20.19;ICPMS;;;285;ICPMS;;;26.8;ICPMS;;;2.6;ICPMS;;;;;;;;;6.83;787;ICPMS;;;63.9;ICPMS;;;114.6;ICPMS;;;11.82;41.7;ICPMS;;;6.7;ICPMS;;;1.42;5.21;0.68;3.92;0.72;2.03;0.34;2.1;0.3;8.4;2.17;;;;;;;0.46;22.4;ICPMS;;;;;17.5;ICPMS;;;5.7;;;;;;;;;;;;;;;;;;;;;;;;;;;;;;;;;;;;;;;;;;;;;;;;;;;;;;;;;;;;;;;;;;;;;;;;;;;;;;;;
2006;[9154] RICHARDS J. P. (2006);samp. AR135;;ANDEAN ARC / CENTRAL ANDEAN VOLCANIC ZONE / ARGENTINA / ANTOFALLA VOLCANIC COMPLEX;ONAS (E);-25.5526;-67.6964;-25.5526;-67.6964;;;OUTCROP;;;SUBAERIAL;VOLCANIC ROCK;TRACHYDACITE;;;;;;;;;;WHOLE ROCK;;;;;;;;;;;;;62.9;0.64;;;16.7;;;;;;;;;;3.07;;;3.53;1.02;0.08;;;;;;;4.26;XRF;;;4.22;0.25;;;;;;;;;;;;;;2.4;;;;;;;;26.3;;;;;;;;;;;;;;;;;4.51;ICPMS;;;;;;;;;;;;;;;;;;;;131;ICPMS;;;559;ICPMS;;;25.26;ICPMS;;;314;ICPMS;;;31.7;ICPMS;;;2.63;ICPMS;;;;;;;;;7.32;888;ICPMS;;;68.1;ICPMS;;;121.7;ICPMS;;;12.17;43;ICPMS;;;6.58;ICPMS;;;1.5;5.85;0.73;4.29;0.85;2.4;0.39;2.45;0.36;8.39;2.51;;;;;;;0.6;19.6;ICPMS;;;;;15.9;ICPMS;;;6.4;;;;;;;;;;;;;;;;;;;;;;;;;;;;;;;;;;;;;;;;;;;;;;;;;;;;;;;;;;;;;;;;;;;;;;;;;;;;;;;;
2006;[9154] RICHARDS J. P. (2006);samp. AR148;;ANDEAN ARC / CENTRAL ANDEAN VOLCANIC ZONE / ARGENTINA / ANTOFALLA VOLCANIC COMPLEX;ONAS (E);-25.5754;-67.7158;-25.5754;-67.7158;;;OUTCROP;;;SUBAERIAL;VOLCANIC ROCK;TRACHYDACITE;;;;;;;;;;WHOLE ROCK;;;;;;;;;;;;;63.9;0.65;;;16.1;;;;;;;;;;4.12;;;3.89;1.4;0.08;;;;;;;3.87;XRF;;;3.78;0.26;;;;;;;;;;;;;;1.65;;;;;;;;15.9;;;;;;;;;;;;;;;;;10.15;ICPMS;;;;;;;;;;;;;;;;;;;;111;ICPMS;;;562;ICPMS;;;16.1;ICPMS;;;205;ICPMS;;;23.8;ICPMS;;;2.32;ICPMS;;;;;;;;;3.12;763;ICPMS;;;52.7;ICPMS;;;102.3;ICPMS;;;10.95;36.2;ICPMS;;;6.01;ICPMS;;;1.35;4.04;0.56;3.17;0.59;1.57;0.24;1.5;0.2;5.2;1.35;;;;;;;0.28;19.6;ICPMS;;;;;13.4;ICPMS;;;3.3;;;;;;;;;;;;;;;;;;;;;;;;;;;;;;;;;;;;;;;;;;;;;;;;;;;;;;;;;;;;;;;;;;;;;;;;;;;;;;;;
2006;[9154] RICHARDS J. P. (2006);samp. AR221;;ANDEAN ARC / CENTRAL ANDEAN VOLCANIC ZONE / ARGENTINA / ANTOFALLA VOLCANIC COMPLEX;CO. ONAS (W);-25.4625;-68.0279;-25.4625;-68.0279;;;OUTCROP;;;SUBAERIAL;VOLCANIC ROCK;TRACHYDACITE;;;;;;;;;;WHOLE ROCK;;;;;;;;;;;;;62.5;0.85;;;17.24;;;;;;;;;;5.01;;;4.75;1.55;0.08;;;;;;;3.36;XRF;;;3.7;0.33;;;;;;;;;;;;;;0.85;;;;;;;;20.9;;;;;;;;;;;;;;;;;9.42;ICPMS;;;;;;;;;;;;2.52;;;;;;;;86;ICPMS;;;570;ICPMS;;;22.81;ICPMS;;;265;ICPMS;;;20.5;ICPMS;;;1.72;ICPMS;;;;;;;;;2.91;872;ICPMS;;;46.5;ICPMS;;;97.8;ICPMS;;;10.9;38.3;ICPMS;;;7.24;ICPMS;;;1.76;6.11;0.82;4.23;0.75;2.15;0.32;1.89;0.26;7.02;1.12;;;;;;;0.47;17.4;ICPMS;;;;;10.6;ICPMS;;;2.3;;;;;;;;;;;;;;;;;;;;;;;;;;;;;;;;;;;;;;;;;;;;;;;;;;;;;;;;;;;;;;;;;;;;;;;;;;;;;;;;
2006;[9154] RICHARDS J. P. (2006);samp. AR257;;ANDEAN ARC / CENTRAL ANDEAN VOLCANIC ZONE / ARGENTINA / ANTOFALLA VOLCANIC COMPLEX;CO. ONAS (W);-25.4789;-67.9623;-25.4789;-67.9623;;;OUTCROP;;;SUBAERIAL;VOLCANIC ROCK;TRACHYDACITE;;;;;;;;;;WHOLE ROCK;;;;;;;;;;;;;62.56;0.84;;;17.44;;;;;;;;;;4.91;;;4.82;1.12;0.08;;;;;;;3.17;XRF;;;3.97;0.32;;;;;;;;;;;;;;0.3;;;;;;;;40.5;;;;;;;;;;;;;;;;;10.08;ICPMS;;;;;;;;;;;;3.57;;;;;;;;103;ICPMS;;;643;ICPMS;;;24.84;ICPMS;;;264;ICPMS;;;20.4;ICPMS;;;1.46;ICPMS;;;;;;;;;2.73;924;ICPMS;;;50.3;ICPMS;;;101;ICPMS;;;11.96;43.5;ICPMS;;;7.74;ICPMS;;;1.82;6.78;0.81;4.31;0.82;2.2;0.33;2.09;0.25;6.91;1.11;;;;;;;0.43;16.9;ICPMS;;;;;10.1;ICPMS;;;2.4;;;;;;;;;;;;;;;;;;;;;;;;;;;;;;;;;;;;;;;;;;;;;;;;;;;;;;;;;;;;;;;;;;;;;;;;;;;;;;;;
2006;[9522] SKUF^IN P. K. (2006);samp. 1;;MATACHEWAN LARGE IGNEOUS PROVINCE / IMANDRA-VARZUGA GREENSTONE BELT / TOMINGA GROUP - PANARECHKA FORMATION;;66.5;37.5;66.8;39;;;OUTCROP;;;SUBAERIAL;VOLCANIC ROCK;TRACHYDACITE;HYPIDIOMORPHIC TO CRYPTOCRISTALLINE TEXTURE WITH IRREGULAR PATCHES OF DEVITRIFIED GLASS;;;;;;;;;WHOLE ROCK;;;;;;;;;;;;;63.88;0.66;;;16.07;;;;;;;;;;2.64;;1.95;2.41;1.67;0.08;;;;;;;4.2;NOT;;;3.85;0.18;;;;;1.77;0.17;0.42;;;;;;0.05;;;;;;;;;;;;;;;;;;;;;;;;;;;;;;;;;;80;40;;;15;30;40;;;;;;;200;NOT;;;190;NOT;;;;;;;;;;;;;;;;;;;;;;;;;;450;NOT;;;;;;;;;;;;;;;;;;;;;;;;;;;;;;;;;;;;;;;;;;;;;;;;;;;;;;;;;;;;;;;;;;;;;;;;;;;;;;;;;;;;;;;;;;;;;;;;;;;;;;;;;;;;;;;;;;;;;;;;;;;;;;;;
2006;[9522] SKUF^IN P. K. (2006);samp. SUBVOLCANIC TRACHYDACITE;;MATACHEWAN LARGE IGNEOUS PROVINCE / IMANDRA-VARZUGA GREENSTONE BELT / TOMINGA GROUP - PANARECHKA FORMATION;;66.5;37.5;66.8;39;;;OUTCROP;;;SUBAERIAL;VOLCANIC ROCK;TRACHYDACITE;;;;;PROTEROZOIC;PALEO;;;;MINERAL / COMPONENT (INCL. GROUNDMASS);ZIRCON;1;;;PRIMARY;;;;;;;;;;;;;;;;;;;;;;;;;;;;;;;;;;;;;;;;;;;;;;;;;;;;;;;;;;;;;;;;;;;;;;;;;;;;;;;;;;;;;;;;;;;;;;;;;;;;;;;;;;;;;;;;;;;;;;;;;;;;;;;;;;;;;;;;;;;;;;;;;;;;;;;;;;;;;;;;;;;;;;;;;19;NOT;;;;;;;;;52.7;;;;;;;;;;;905;;7.6002;3.6571;;;;;;;;;;;;;;;;;;;0.29222;4.70292;;;;;;;;;;;;;;;;;;;;;;;;;;;;;;;;;;;;;1907;;;;;;;;;
2006;[9522] SKUF^IN P. K. (2006);samp. SUBVOLCANIC TRACHYDACITE;;MATACHEWAN LARGE IGNEOUS PROVINCE / IMANDRA-VARZUGA GREENSTONE BELT / TOMINGA GROUP - PANARECHKA FORMATION;;66.5;37.5;66.8;39;;;OUTCROP;;;SUBAERIAL;VOLCANIC ROCK;TRACHYDACITE;;;;;PROTEROZOIC;PALEO;;;;MINERAL / COMPONENT (INCL. GROUNDMASS);ZIRCON;2;;;PRIMARY;;;;;;;;;;;;;;;;;;;;;;;;;;;;;;;;;;;;;;;;;;;;;;;;;;;;;;;;;;;;;;;;;;;;;;;;;;;;;;;;;;;;;;;;;;;;;;;;;;;;;;;;;;;;;;;;;;;;;;;;;;;;;;;;;;;;;;;;;;;;;;;;;;;;;;;;;;;;;;;;;;;;;;;;;40.9;NOT;;;;;;;;;136.9;;;;;;;;;;;1926;;8.0991;4.0288;;;;;;;;;;;;;;;;;;;0.251087;4.03278;;;;;;;;;;;;;;;;;;;;;;;;;;;;;;;;;;;;;1903;;;;;;;;;
2006;[9522] SKUF^IN P. K. (2006);samp. SUBVOLCANIC TRACHYDACITE;;MATACHEWAN LARGE IGNEOUS PROVINCE / IMANDRA-VARZUGA GREENSTONE BELT / TOMINGA GROUP - PANARECHKA FORMATION;;66.5;37.5;66.8;39;;;OUTCROP;;;SUBAERIAL;VOLCANIC ROCK;TRACHYDACITE;;;;;PROTEROZOIC;PALEO;;;;MINERAL / COMPONENT (INCL. GROUNDMASS);ZIRCON;3;;;PRIMARY;;;;;;;;;;;;;;;;;;;;;;;;;;;;;;;;;;;;;;;;;;;;;;;;;;;;;;;;;;;;;;;;;;;;;;;;;;;;;;;;;;;;;;;;;;;;;;;;;;;;;;;;;;;;;;;;;;;;;;;;;;;;;;;;;;;;;;;;;;;;;;;;;;;;;;;;;;;;;;;;;;;;;;;;;244.2;NOT;;;;;;;;;205.4;;;;;;;;;;;31;;1.8353;0.75539;;;;;;;;;;;;;;;;;;;0.191843;3.07372;;;;;;;;;;;;;;;;;;;;;;;;;;;;;;;;;;;;;1899;;;;;;;;;
2006;[9522] SKUF^IN P. K. (2006);samp. SUBVOLCANIC TRACHYDACITE;;MATACHEWAN LARGE IGNEOUS PROVINCE / IMANDRA-VARZUGA GREENSTONE BELT / TOMINGA GROUP - PANARECHKA FORMATION;;66.5;37.5;66.8;39;;;OUTCROP;;;SUBAERIAL;VOLCANIC ROCK;TRACHYDACITE;;;;;PROTEROZOIC;PALEO;;;;MINERAL / COMPONENT (INCL. GROUNDMASS);ZIRCON;4;;;PRIMARY;;;;;;;;;;;;;;;;;;;;;;;;;;;;;;;;;;;;;;;;;;;;;;;;;;;;;;;;;;;;;;;;;;;;;;;;;;;;;;;;;;;;;;;;;;;;;;;;;;;;;;;;;;;;;;;;;;;;;;;;;;;;;;;;;;;;;;;;;;;;;;;;;;;;;;;;;;;;;;;;;;;;;;;;;42.4;NOT;;;;;;;;;53.8;;;;;;;;;;;30;;1.7729;0.73176;;;;;;;;;;;;;;;;;;;0.116496;1.87578;;;;;;;;;;;;;;;;;;;;;;;;;;;;;;;;;;;;;1908;;;;;;;;;
2006;[9566] STEVENSON J. A. (2006);samp. JS203;;ICELAND / ICELAND / ÖRAEFAJÖKULL;VATNAFJALL;64.03;-16.68;64.03;-16.68;;;OUTCROP;;;SUBAERIAL;VOLCANIC ROCK;TRACHYDACITE;NON-VESICULAR;LAVA, UNIT E;;;;;;;;WHOLE ROCK;;;;;;;;;;;;;68;0.691;;;14.67;;;;;;;;;;4.52;;;2.52;0.92;0.088;;;;;;;3.66;XRF;;;4.8;0.148;;;;;;;;;;;;;;0.22;;;;;;;;;;;;;;;;;;;;;;;;;7;XRF;;;;;;;34;10;;;6;2;24;80;23;;;;;92;XRF;;;134;XRF;;;64.9;XRF;;;494;XRF;;;52;XRF;;;;;;;;;;;;;;607;XRF;;;;;;;;;;;;;;;;;;;;;;;;;;;;;;;;;;;;;;6;XRF;;;;;10;XRF;;;4;;;;;;;;;;;;;;;;;;;;;;;;;;;;;;;;;;;;;;;;;;;;;;;;;;;;;;;;;;;;;;;;;;;;;;;;;;;;;;;;
2006;[9566] STEVENSON J. A. (2006);samp. JS226;;ICELAND / ICELAND / ÖRAEFAJÖKULL;VATNAFJALL;64.03;-16.68;64.03;-16.68;;;OUTCROP;;;SUBAERIAL;VOLCANIC ROCK;TRACHYDACITE;;LAVA, UNIT E;;;;;;;;WHOLE ROCK;;;;;;;;;;;;;68.96;0.604;;;14.48;;;;;;;;;;4.11;;;2.24;0.78;0.084;;;;;;;3.75;XRF;;;4.85;0.133;;;;;;;;;;;;;;0.19;;;;;;;;;;;;;;;;;;;;;;;;;7;XRF;;;;;;;22;31;;;4;2;21;75;22;;;;;92;XRF;;;119;XRF;;;64.4;XRF;;;479;XRF;;;52;XRF;;;;;;;;;;;;;;601;XRF;;;;;;;;;;;;;;;;;;;;;;;;;;;;;;;;;;;;;;7;XRF;;;;;13;XRF;;;3;;;;;;;;;;;;;;;;;;;;;;;;;;;;;;;;;;;;;;;;;;;;;;;;;;;;;;;;;;;;;;;;;;;;;;;;;;;;;;;;
2006;[9566] STEVENSON J. A. (2006);samp. JS257;;ICELAND / ICELAND / ÖRAEFAJÖKULL;VATNAFJALL;64.03;-16.68;64.03;-16.68;;;OUTCROP;;;SUBAERIAL;VOLCANIC ROCK;TRACHYDACITE;;LAVA, UNIT E;;;;;;;;WHOLE ROCK;;;;;;;;;;;;;66.26;0.854;;;14.95;;;;;;;;;;5.31;;;3.06;1.19;0.094;;;;;;;3.38;XRF;;;4.71;0.19;;;;;;;;;;;;;;0.25;;;;;;;;;;;;;;;;;;;;;;;;;9;XRF;;;;;;;47;9;;;7;6;29;69;23;;;;;79;XRF;;;165;XRF;;;60.9;XRF;;;471;XRF;;;47;XRF;;;;;;;;;;;;;;575;XRF;;;;;;;;;;;;;;;;;;;;;;;;;;;;;;;;;;;;;;4;XRF;;;;;9;XRF;;;3;;;;;;;;;;;;;;;;;;;;;;;;;;;;;;;;;;;;;;;;;;;;;;;;;;;;;;;;;;;;;;;;;;;;;;;;;;;;;;;;
2006;[9815] VORONTSOV A. A. (2006);samp. GO-5/5;;CENTRAL ASIAN FOLDBELT - MESOZOIC / TRANSBAIKALIA - MESOZOIC / WESTERN TRANSBAIKALIA / KHAMBIN VOLCANIC FIELD;;51.2;106.3;51.4;106.33;;;OUTCROP;;;SUBAERIAL;VOLCANIC ROCK;TRACHYDACITE;;;117000000;159000000;MESOZOIC;;;;;WHOLE ROCK;;;;;;;;;;;;;;;;;;;;;;;;;;;;;;;;;;;;;;;;;;;;;;;;;;;;;;;;;;;;;;;;;;;;;;;;;;;;;;;;;;;;;;;;;;;;;;;;;;;;;;;;199;TIMS_ID;;;13.8;TIMS_ID;;;;;;;;;;;;;;;;;;;;;;;;;;;;;;;;;;;;;;;;;;;;;;;;;;;;;;;;;;;;;;;;;;;;;;;;;;;;;;;;;0.7973;;;;41.9982;;;;;;;;;;;;;;;;;;;;;;;;;;;;;;;;;;;;;;;;;;;;;;;;;;;;;;;;;;;;;;;;;;;;;;
2006;[9815] VORONTSOV A. A. (2006);samp. GO-5/6;;CENTRAL ASIAN FOLDBELT - MESOZOIC / TRANSBAIKALIA - MESOZOIC / WESTERN TRANSBAIKALIA / KHAMBIN VOLCANIC FIELD;;51.2;106.3;51.4;106.33;;;OUTCROP;;;SUBAERIAL;VOLCANIC ROCK;TRACHYDACITE;;;117000000;159000000;MESOZOIC;;;;;WHOLE ROCK;;;;;;;;;;;;;;;;;;;;;;;;;;;;;;;;;;;;;;;;;;;;;;;;;;;;;;;;;;;;;;;;;;;;;;;;;;;;;;;;;;;;;;;;;;;;;;;;;;;;;;;;250;TIMS_ID;;;35.1;TIMS_ID;;;;;;;;;;;;;;;;;;;;;;;;;;;;;;;;;;;;;;;;;;;;;;;;;;;;;;;;;;;;;;;;;;;;;;;;;;;;;;;;;0.75125;;;;20.696;;;;;;;;;;;;;;;;;;;;;;;;;;;;;;;;;;;;;;;;;;;;;;;;;;;;;;;;;;;;;;;;;;;;;;
2006;[9815] VORONTSOV A. A. (2006);samp. GO-5/7;;CENTRAL ASIAN FOLDBELT - MESOZOIC / TRANSBAIKALIA - MESOZOIC / WESTERN TRANSBAIKALIA / KHAMBIN VOLCANIC FIELD;;51.2;106.3;51.4;106.33;;;OUTCROP;;;SUBAERIAL;VOLCANIC ROCK;TRACHYDACITE;;;117000000;159000000;MESOZOIC;;;;;WHOLE ROCK;;;;;;;;;;;;;;;;;;;;;;;;;;;;;;;;;;;;;;;;;;;;;;;;;;;;;;;;;;;;;;;;;;;;;;;;;;;;;;;;;;;;;;;;;;;;;;;;;;;;;;;;183.5;TIMS_ID;;;10.7;TIMS_ID;;;;;;;;;;;;;;;;;;;;;;;;;;;;;;;;;;;;;;;;;;;;;;;;;;;;;;;;;;;;;;;;;;;;;;;;;;;;;;;;;0.81823;;;;50.04161;;;;;;;;;;;;;;;;;;;;;;;;;;;;;;;;;;;;;;;;;;;;;;;;;;;;;;;;;;;;;;;;;;;;;;
2006;[9815] VORONTSOV A. A. (2006);samp. CH-16/8;;CENTRAL ASIAN FOLDBELT - MESOZOIC / TRANSBAIKALIA - MESOZOIC / WESTERN TRANSBAIKALIA / KHAMBIN VOLCANIC FIELD;UDUNGA RIVER AREA;51.3;106.3;51.4;106.33;;;OUTCROP;;;SUBAERIAL;VOLCANIC ROCK;TRACHYDACITE;;;117000000;159000000;MESOZOIC;;;;;WHOLE ROCK;;;;;;;;;;;;;;;;;;;;;;;;;;;;;;;;;;;;;;;;;;;;;;;;;;;;;;;;;;;;;;;;;;;;;;;;;;;;;;;;;;;;;;;;;;;;;;;;;;;;;;;;160;TIMS_ID;;;47;TIMS_ID;;;;;;;;;;;;;;;;;;;;;;;;;;;;;;;;;;;;;;;;;;;;;;;;;;;;;;;;;;;;;;;;;;;;;;;;;;;;;;;;;0.75321;;;;21.07153;;;;;;;;;;;;;;;;;;;;;;;;;;;;;;;;;;;;;;;;;;;;;;;;;;;;;;;;;;;;;;;;;;;;;;
2006;[9815] VORONTSOV A. A. (2006);samp. KHAM-3/19;;CENTRAL ASIAN FOLDBELT - MESOZOIC / TRANSBAIKALIA - MESOZOIC / WESTERN TRANSBAIKALIA / KHAMBIN VOLCANIC FIELD - SHALUTA;;51.3;106.3;51.4;106.33;;;OUTCROP;;;SUBAERIAL;VOLCANIC ROCK;TRACHYDACITE;;;117000000;159000000;MESOZOIC;;;;;WHOLE ROCK;;;;;;;;;;;;;;;;;;;;;;;;;;;;;;;;;;;;;;;;;;;;;;;;;;;;;;;;;;;;;;;;5;;;;;;;;;;;;;;;;;;;;;;;;;;;;;;;;;;;;;;;;;;;;;;;;;;;;;;;;;;;;;;;;;;;;;;;;;;;;;;;;;;;;;;;;;;;;;;;;;;;;;;;;;;;;;;;;;;;;;;;;;;;;;;;;;;;;;;;;;;;;;;;;;;;;;;;;;;;;;;;;;;;;;;;;;;;;;;;;;;;;;;;127.5;K-AR;;;;;;;;;;;;;;;;
2007;[9842] GMELING K. (2007);samp. LP2;;MEXICAN VOLCANIC BELTS / TRANS MEXICAN VOLCANIC BELT / NAYARIT / CEBORUCO;CEBORUCO CONE FIELD;21;-104.35;21.22;-104.65;;;OUTCROP;;;SUBAERIAL;VOLCANIC ROCK;TRACHYDACITE;;;;370000;PLEISTOCENE;;;;;WHOLE ROCK;;;;;;;;;;;;;66.3;0.89;;;17.07;;;;;;;;;5.45;;;;0;0.76;0.17;;;;;;;2.66;PGNAA;;;6.24;;0.41;PGNAA;;;;;;;;;;;;;;;;;;;;;;13.2;;;;;;;;2.81;;;;;;;27;PGNAA;;;;;;;;;;;;;;;;;;;;;;;;;;;;;;;;;;;;;;;;;;;;;;;;;;;;;;;;;;;;;;;;46;PGNAA;;;4;PGNAA;;;;5;;;;;;;;;;;;;;;;;;;;;;;;;;;;;;;;;;;;;;;;;;;;;;;;;;;;;;;;;;;;;;;;;;;;;;;;;;;;;;;;;;;;;;;;;;;;;;;;;;;;;;;;;;;
2007;[9842] GMELING K. (2007);samp. S32;;MEXICAN VOLCANIC BELTS / TRANS MEXICAN VOLCANIC BELT / NAYARIT / CEBORUCO;CEBORUCO CONE FIELD;21;-104.35;21.22;-104.65;;;OUTCROP;;;SUBAERIAL;VOLCANIC ROCK;TRACHYDACITE;;;;370000;PLEISTOCENE;;;;;WHOLE ROCK;;;;;;;;;;;;;60.77;0.85;;;17.22;;;;;;;;;5.27;;;;3.5;3.53;0.15;;;;;;;2.47;PGNAA;;;5.72;;0.48;PGNAA;;;;;;;;;;;;;;;;;;;;;;12.9;;;;;;;;337;;;;;;;0;PGNAA;;;;;;;;;;;;;;;;;;;;;;;;;;;;;;;;;;;;;;;;;;;;;;;;;;;;;;;;;;;;;;;;39;PGNAA;;;4;PGNAA;;;;5;;;;;;;;;;;;;;;;;;;;;;;;;;;;;;;;;;;;;;;;;;;;;;;;;;;;;;;;;;;;;;;;;;;;;;;;;;;;;;;;;;;;;;;;;;;;;;;;;;;;;;;;;;;
2007;[9938] NEBEL O. (2007);samp. NZ-S07;;NEW ZEALAND / SOUTH ISLAND / BROOK STREET TERRANE / TAKITIMU MOUNTAINS;EASTERN PROVINCE OF NEW ZEALAND;-45.5;167.6;-45.9;168.1;;;OUTCROP;;;SUBAERIAL;VOLCANIC ROCK;TRACHYDACITE;;;;;;;;;;WHOLE ROCK;;;;;;;;;;;;;61.81;0.48;;;18.27;;;;;;;;;;3.04;;2.31;3.75;1.98;0.16;;;;;;;1.9;XRF;;;6.07;0.23;;;;;;;;;;;;;;;;;;;;;;;;;;;;;;;;;;;;;;;13;XRF;;;;;;;92;19;;;9;;;75;18;;;;;;;;;867;XRF;;;15;XRF;;;56;XRF;;;;;;;;;;;;;;;;;;190;XRF;;;;;;;;;;;;10.79;NOT;;;2.28;NOT;;;;;;;;;;;0.267;1.764;;;;;;;;;;;;;;;;;;;;0.512935;;;;0.1268;;;;;;;;;;;;;;;;0.283062;;;0.0215;;;;;;;;;;;;;;;;;;;;;;;;;;;;;;;;;;;;;;;;;;;;;;;;;;;;;;;;
2007;[9938] NEBEL O. (2007);samp. NZ-S07;;NEW ZEALAND / SOUTH ISLAND / BROOK STREET TERRANE / TAKITIMU MOUNTAINS;EASTERN PROVINCE OF NEW ZEALAND;-45.5;167.6;-45.9;168.1;;;OUTCROP;;;SUBAERIAL;VOLCANIC ROCK;TRACHYDACITE;;;;;;;;;;WHOLE ROCK;;;;;;;;;;;;;;;;;;;;;;;;;;;;;;;;;;;;;;;;;;;;;;;;;;;;;;;;;;;;;;;;;;;;;;;;;;;;;;;;;;;;;;;;;;;;;;;;;;;;;;;;;;;;;;;;;;;;;;;;;;;;;;;;;;;;;;;;;;;;;;;;;;;;;;;;;;;;;;;;;;;;;;;;;;;;;;;;;;;;;;;;;;;;;;;;;;;;;;;;;;;;;0.283066;;;0.0219;;;;;;;;;;;;;;;;;;;;;;;;;;;;;;;;;;;;;;;;;;;;;;;;;;;;;;;;