Year;CITATION;SAMPLE NAME;UNIQUE_ID;LOCATION;LOCATION COMMENT;LATITUDE (MIN.);LONGITUDE (MIN.);LATITUDE (MAX.);LONGITUDE (MAX.);ELEVATION (MIN.);ELEVATION (MAX.);SAMPLING TECHNIQUE;DRILLING DEPTH (MIN.);DRILLING DEPTH (MAX.);LAND/SEA (SAMPLING);ROCK TYPE;ROCK NAME;ROCK TEXTURE;SAMPLE COMMENT;AGE (MIN.);AGE (MAX.);GEOLOGICAL AGE;GEOLOGICAL AGE PREFIX;ERUPTION YEAR;ALTERATION;ALTERATION TYPE;TYPE OF MATERIAL;MINERAL / COMPONENT;SPOT (MINERAL);CRYSTAL;RIM / CORE (MINERAL GRAINS);PRIMARY/SECONDARY;INCLUSION TYPE;SPOT (INCLUSION);MINERAL (INCLUSION);RIM / CORE (INCLUSION);HOSTMINERAL (INCLUSION);HEATING;HEATING TEMPERATURE (?C);SIO2(WT%);TIO2(WT%);ZRO2(WT%);B2O3(WT%);AL2O3(WT%);CR2O3(WT%);LA2O3(WT%);CE2O3(WT%);Y2O3(WT%);V2O3(WT%);NB2O3(WT%);TA2O5(WT%);WO3(WT%);FE2O3T(WT%);FE2O3(WT%);FEOT(WT%);FEO(WT%);CAO(WT%);MGO(WT%);MNO(WT%);BAO(WT%);SRO(WT%);NIO(WT%);ZNO(WT%);CS2O(WT%);RB2O(WT%);K2O(WT%);;;;NA2O(WT%);P2O5(WT%);H2O(WT%);;;;H2OP(WT%);H2OM(WT%);CO2(WT%);C(WT%);F(WT%);CL(WT%);SO2(WT%);SO3(WT%);S(WT%);LOI(WT%);AL(WT%);TI(WT%);FE(WT%);MG(WT%);CA(WT%);K(WT%);NA(WT%);LI(PPM);BE(PPM);B(PPM);C(PPM);F(PPM);NA(PPM);MG(PPM);AL(PPM);P(PPM);S(PPM);CL(PPM);AR40(AT/G);AR40(CCMSTP/G);AR40(MOL/G);AR40(PPB);K(PPM);CA(PPM);SC(PPM);;;;TI(PPM);;;;V(PPM);CR(PPM);MN(PPM);FE(PPM);CO(PPM);NI(PPM);CU(PPM);ZN(PPM);GA(PPM);GE(PPM);AS(PPM);SE(PPM);BR(PPM);RB(PPM): altern. values or methods;;;;SR(PPM): altern. values or methods;;;;Y(PPM): altern. values or methods;;;;ZR(PPM): altern. values or methods;;;;NB(PPM): altern. values or methods;;;;MO(PPM): altern. values or methods;;;;AG(PPM);CD(PPM);IN(PPM);SN(PPM);SB(PPM);TE(PPM);CS(PPM);BA(PPM): altern. values or methods;;;;LA(PPM): altern. values or methods;;;;CE(PPM): altern. values or methods;;;;PR(PPM);ND(PPM): altern. values or methods;;;;SM(PPM): altern. values or methods;;;;EU(PPM);GD(PPM);TB(PPM);DY(PPM);HO(PPM);ER(PPM);TM(PPM);YB(PPM);LU(PPM);HF(PPM);TA(PPM);W(PPM);RE(PPM);AU(PPM);AU(PPB);HG(PPM);HG(PPB);TL(PPM);PB(PPM): altern. values or methods;;;;PB206(PPM);BI(PPM);TH(PPM): altern. values or methods;;;;U(PPM);ND143_ND144;ND143_ND144_INI;EPSILON_ND;EPSILON_ND_INI;SM147_ND144;SR87_SR86;SR87_SR86_INI;EPSILON_SR;EPSILON_SR_INI;RB87_SR86;PB206_PB204;PB206_PB204_INI;PB206_PB207;PB206_PB208;PB207_PB204;PB207_PB204_INI;PB207_PB206;PB208_PB204;PB208_PB204_INI;PB208_PB206;HF176_HF177;HF176_HF177_INI;EPSILON_HF_INI;LU176_HF177;YB176_HF177;AR36_AR39;AR36_AR40;AR37_AR39;AR38_AR39;AR39_AR40;AR40_AR36;AR40_AR39;PB206_U238;PB207_U235;PB208_TH232;TH232_PB204;TH232_U238;U235_PB204;U238_PB204;U238_PB206;D7LI(VS LSVEC);D18O(PER MIL);D18O(VS SMOW);D18O(VS VSMOW);D56FE(VS IRMM-014);D57FE(VS IRMM-014);DD(VS SMOW);ALBITE(MOL%);ANORTHITE(MOL%);CA OLIVINE(MOL%);ENSTATITE(MOL%);FAYALITE(MOL%);FORSTERITE(MOL%);FERROSILITE(MOL%);ORTHOCLASE(MOL%);TEPHROITE(MOL%);ULVOSPINEL(MOL%);WOLLASTONITE(MOL%);AGE(KA): altern. values or methods;;;;AGE(MA): altern. values or methods;;;;;;;;AGE_PB207_PB206(MA);AGE_PB207_U235(MA);AGE_PB206_U238(MA): altern. values or methods;;;;;;AGE_PB208_TH232(MA);
2005;[7504] LUSTRINO M. (2005);samp. MAR59;;PARANA / SOUTHERN PARANA PROVINCE / VALLE CHICO IGNEOUS COMPLEX;URUGUAY;-33.98;-54.58;-33.98;-54.58;;;OUTCROP;;;SUBAERIAL;VOLCANIC ROCK;TRACHYDACITE;;;;;CRETACEOUS;LOWER;;;;MINERAL / COMPONENT (INCL. GROUNDMASS);PLAGIOCLASE;;;;PRIMARY;;;;;;;;61.31;;;;24.36;;;;;;;;;;;0.44;;6.33;;;0.17;;;;;;1.05;EMP (EPMA);;;6.95;;;;;;;;;;;;;;;;;;;;;;;;;;;;;;;;;;;;;;;;;;;;;;;;;;;;;;;;;;;;;;;;;;;;;;;;;;;;;;;;;;;;;;;;;;;;;;;;;;;;;;;;;;;;;;;;;;;;;;;;;;;;;;;;;;;;;;;;;;;;;;;;;;;;;;;;;;;;;;;;;;;;;;;;;;;;;;;;;;;;;;;;;;;;;62.4;31.4;;;;;;6.2;;;;;;;;;;;;;;;;;;;;;;;;;
2005;[7504] LUSTRINO M. (2005);samp. MAR59;;PARANA / SOUTHERN PARANA PROVINCE / VALLE CHICO IGNEOUS COMPLEX;URUGUAY;-33.98;-54.58;-33.98;-54.58;;;OUTCROP;;;SUBAERIAL;VOLCANIC ROCK;TRACHYDACITE;;;;;CRETACEOUS;LOWER;;;;MINERAL / COMPONENT (INCL. GROUNDMASS);PLAGIOCLASE;;;;PRIMARY;;;;;;;;58.6;;;;26.31;;;;;;;;;;;0.56;;8.54;;;0.16;;;;;;0.57;EMP (EPMA);;;5.93;;;;;;;;;;;;;;;;;;;;;;;;;;;;;;;;;;;;;;;;;;;;;;;;;;;;;;;;;;;;;;;;;;;;;;;;;;;;;;;;;;;;;;;;;;;;;;;;;;;;;;;;;;;;;;;;;;;;;;;;;;;;;;;;;;;;;;;;;;;;;;;;;;;;;;;;;;;;;;;;;;;;;;;;;;;;;;;;;;;;;;;;;;;;;53.8;42.8;;;;;;3.4;;;;;;;;;;;;;;;;;;;;;;;;;
2005;[7504] LUSTRINO M. (2005);samp. MAR59;;PARANA / SOUTHERN PARANA PROVINCE / VALLE CHICO IGNEOUS COMPLEX;URUGUAY;-33.98;-54.58;-33.98;-54.58;;;OUTCROP;;;SUBAERIAL;VOLCANIC ROCK;TRACHYDACITE;;;;;CRETACEOUS;LOWER;;;;MINERAL / COMPONENT (INCL. GROUNDMASS);PLAGIOCLASE;;;;PRIMARY;;;;;;;;58.98;;;;26.25;;;;;;;;;;;0.39;;8.26;;;0.04;;;;;;0.49;EMP (EPMA);;;5.78;;;;;;;;;;;;;;;;;;;;;;;;;;;;;;;;;;;;;;;;;;;;;;;;;;;;;;;;;;;;;;;;;;;;;;;;;;;;;;;;;;;;;;;;;;;;;;;;;;;;;;;;;;;;;;;;;;;;;;;;;;;;;;;;;;;;;;;;;;;;;;;;;;;;;;;;;;;;;;;;;;;;;;;;;;;;;;;;;;;;;;;;;;;;;54.2;42.8;;;;;;3;;;;;;;;;;;;;;;;;;;;;;;;;
2005;[7504] LUSTRINO M. (2005);samp. MAR59;;PARANA / SOUTHERN PARANA PROVINCE / VALLE CHICO IGNEOUS COMPLEX;URUGUAY;-33.98;-54.58;-33.98;-54.58;;;OUTCROP;;;SUBAERIAL;VOLCANIC ROCK;TRACHYDACITE;;;;;CRETACEOUS;LOWER;;;;MINERAL / COMPONENT (INCL. GROUNDMASS);PLAGIOCLASE;;;;PRIMARY;;;;;;;;60.08;;;;25.71;;;;;;;;;;;0.5;;7.22;;;0.08;;;;;;0.59;EMP (EPMA);;;6.14;;;;;;;;;;;;;;;;;;;;;;;;;;;;;;;;;;;;;;;;;;;;;;;;;;;;;;;;;;;;;;;;;;;;;;;;;;;;;;;;;;;;;;;;;;;;;;;;;;;;;;;;;;;;;;;;;;;;;;;;;;;;;;;;;;;;;;;;;;;;;;;;;;;;;;;;;;;;;;;;;;;;;;;;;;;;;;;;;;;;;;;;;;;;;58.4;37.9;;;;;;3.7;;;;;;;;;;;;;;;;;;;;;;;;;
2005;[7504] LUSTRINO M. (2005);samp. MAR59;;PARANA / SOUTHERN PARANA PROVINCE / VALLE CHICO IGNEOUS COMPLEX;URUGUAY;-33.98;-54.58;-33.98;-54.58;;;OUTCROP;;;SUBAERIAL;VOLCANIC ROCK;TRACHYDACITE;;;;;CRETACEOUS;LOWER;;;;MINERAL / COMPONENT (INCL. GROUNDMASS);PLAGIOCLASE;;;;PRIMARY;;;;;;;;62.59;;;;23.56;;;;;;;;;;;0.4;;5.19;;;0;;;;;;0.4;EMP (EPMA);;;7.63;;;;;;;;;;;;;;;;;;;;;;;;;;;;;;;;;;;;;;;;;;;;;;;;;;;;;;;;;;;;;;;;;;;;;;;;;;;;;;;;;;;;;;;;;;;;;;;;;;;;;;;;;;;;;;;;;;;;;;;;;;;;;;;;;;;;;;;;;;;;;;;;;;;;;;;;;;;;;;;;;;;;;;;;;;;;;;;;;;;;;;;;;;;;;70.9;26.7;;;;;;2.4;;;;;;;;;;;;;;;;;;;;;;;;;
2005;[7504] LUSTRINO M. (2005);samp. MAR59;;PARANA / SOUTHERN PARANA PROVINCE / VALLE CHICO IGNEOUS COMPLEX;URUGUAY;-33.98;-54.58;-33.98;-54.58;;;OUTCROP;;;SUBAERIAL;VOLCANIC ROCK;TRACHYDACITE;;;;;CRETACEOUS;LOWER;;;;MINERAL / COMPONENT (INCL. GROUNDMASS);SPINEL;;;;PRIMARY;;;;;;;;;25.1;;;0.82;;;;;;;;;;;61.06;;;0.02;6.83;;;;;;;;;;;;;;;;;;;;;;;;;;;;;;;;;;;;;;;;;;;;;;;;;;;;;;;;;;;;;;;;;;;;;;;;;;;;;;;;;;;;;;;;;;;;;;;;;;;;;;;;;;;;;;;;;;;;;;;;;;;;;;;;;;;;;;;;;;;;;;;;;;;;;;;;;;;;;;;;;;;;;;;;;;;;;;;;;;;;;;;;;;;;;;;;;;;;;;;;;;;;;;;;;76.4;;;;;;;;;;;;;;;;;;;;;;;
2005;[7504] LUSTRINO M. (2005);samp. MAR59;;PARANA / SOUTHERN PARANA PROVINCE / VALLE CHICO IGNEOUS COMPLEX;URUGUAY;-33.98;-54.58;-33.98;-54.58;;;OUTCROP;;;SUBAERIAL;VOLCANIC ROCK;TRACHYDACITE;;;;;CRETACEOUS;LOWER;;;;MINERAL / COMPONENT (INCL. GROUNDMASS);SPINEL;;;;PRIMARY;;;;;;;;;16.2;;;0.79;;;;;;;;;;;74.74;;;0.09;1.49;;;;;;;;;;;;;;;;;;;;;;;;;;;;;;;;;;;;;;;;;;;;;;;;;;;;;;;;;;;;;;;;;;;;;;;;;;;;;;;;;;;;;;;;;;;;;;;;;;;;;;;;;;;;;;;;;;;;;;;;;;;;;;;;;;;;;;;;;;;;;;;;;;;;;;;;;;;;;;;;;;;;;;;;;;;;;;;;;;;;;;;;;;;;;;;;;;;;;;;;;;;;;;;;;51.7;;;;;;;;;;;;;;;;;;;;;;;
2005;[7504] LUSTRINO M. (2005);samp. MAR59;;PARANA / SOUTHERN PARANA PROVINCE / VALLE CHICO IGNEOUS COMPLEX;URUGUAY;-33.98;-54.58;-33.98;-54.58;;;OUTCROP;;;SUBAERIAL;VOLCANIC ROCK;TRACHYDACITE;;;;;CRETACEOUS;LOWER;;;;MINERAL / COMPONENT (INCL. GROUNDMASS);SPINEL;;;;PRIMARY;;;;;;;;;30.87;;;0.97;;;;;;;;;;;60.43;;;0.34;3.08;;;;;;;;;;;;;;;;;;;;;;;;;;;;;;;;;;;;;;;;;;;;;;;;;;;;;;;;;;;;;;;;;;;;;;;;;;;;;;;;;;;;;;;;;;;;;;;;;;;;;;;;;;;;;;;;;;;;;;;;;;;;;;;;;;;;;;;;;;;;;;;;;;;;;;;;;;;;;;;;;;;;;;;;;;;;;;;;;;;;;;;;;;;;;;;;;;;;;;;;;;;;;;;;;91.5;;;;;;;;;;;;;;;;;;;;;;;
2005;[7504] LUSTRINO M. (2005);samp. MAR45;;PARANA / SOUTHERN PARANA PROVINCE / VALLE CHICO IGNEOUS COMPLEX;URUGUAY;-33.98;-54.58;-33.98;-54.58;;;OUTCROP;;;SUBAERIAL;VOLCANIC ROCK;TRACHYDACITE;;;;;CRETACEOUS;LOWER;;;;MINERAL / COMPONENT (INCL. GROUNDMASS);SPINEL;;;;PRIMARY;;;;;;;;;12.56;;;0.67;;;;;;;;;;;76.07;;;0.11;1.28;;;;;;;;;;;;;;;;;;;;;;;;;;;;;;;;;;;;;;;;;;;;;;;;;;;;;;;;;;;;;;;;;;;;;;;;;;;;;;;;;;;;;;;;;;;;;;;;;;;;;;;;;;;;;;;;;;;;;;;;;;;;;;;;;;;;;;;;;;;;;;;;;;;;;;;;;;;;;;;;;;;;;;;;;;;;;;;;;;;;;;;;;;;;;;;;;;;;;;;;;;;;;;;;;42.3;;;;;;;;;;;;;;;;;;;;;;;
2005;[7504] LUSTRINO M. (2005);samp. MAR59;;PARANA / SOUTHERN PARANA PROVINCE / VALLE CHICO IGNEOUS COMPLEX;URUGUAY;-33.98;-54.58;-33.98;-54.58;;;OUTCROP;;;SUBAERIAL;VOLCANIC ROCK;TRACHYDACITE;;;;;CRETACEOUS;LOWER;;;;MINERAL / COMPONENT (INCL. GROUNDMASS);APATITE;;;;PRIMARY;;;;;;;;0.13;;;;;;0.2;0.18;;;;;;;;0.33;;53.57;0.07;0.1;;0.07;;;;;;;;;0.11;42.19;;;;;;;;;5.48;0.06;;;;;;;;;;;;;;;;;;;;;;;;;;;;;;;;;;;;;;;;;;;;;;;;;;;;;;;;;;;;;;;;;;;;;;;;;;;;;;;;;;;;;;;;;;;;;;;;;;;;;;;;;;;;;;;;;;;;;;;;;;;;;;;;;;;;;;;;;;;;;;;;;;;;;;;;;;;;;;;;;;;;;;;;;;;;;;;;;;;;;;;;;;;;;;;;;;;;;;;;;;;;;;;;;;
2005;[7504] LUSTRINO M. (2005);samp. MAR59;;PARANA / SOUTHERN PARANA PROVINCE / VALLE CHICO IGNEOUS COMPLEX;URUGUAY;-33.98;-54.58;-33.98;-54.58;;;OUTCROP;;;SUBAERIAL;VOLCANIC ROCK;TRACHYDACITE;;;;;CRETACEOUS;LOWER;;;;MINERAL / COMPONENT (INCL. GROUNDMASS);APATITE;;;;PRIMARY;;;;;;;;0.23;;;;;;0.13;0.53;;;;;;;;0.23;;53.83;0.01;0.08;;0;;;;;;;;;0.05;41.98;;;;;;;;;5.72;0.09;;;;;;;;;;;;;;;;;;;;;;;;;;;;;;;;;;;;;;;;;;;;;;;;;;;;;;;;;;;;;;;;;;;;;;;;;;;;;;;;;;;;;;;;;;;;;;;;;;;;;;;;;;;;;;;;;;;;;;;;;;;;;;;;;;;;;;;;;;;;;;;;;;;;;;;;;;;;;;;;;;;;;;;;;;;;;;;;;;;;;;;;;;;;;;;;;;;;;;;;;;;;;;;;;;
2005;[7504] LUSTRINO M. (2005);samp. MAR45;;PARANA / SOUTHERN PARANA PROVINCE / VALLE CHICO IGNEOUS COMPLEX;URUGUAY;-33.98;-54.58;-33.98;-54.58;;;OUTCROP;;;SUBAERIAL;VOLCANIC ROCK;TRACHYDACITE;;;;;CRETACEOUS;LOWER;;;;MINERAL / COMPONENT (INCL. GROUNDMASS);APATITE;;;;PRIMARY;;;;;;;;1.31;;;;;;0.27;0.65;;;;;;;;0.12;;52.46;0.03;0.09;;0;;;;;;;;;0.15;41.47;;;;;;;;;2.97;0.69;;;;;;;;;;;;;;;;;;;;;;;;;;;;;;;;;;;;;;;;;;;;;;;;;;;;;;;;;;;;;;;;;;;;;;;;;;;;;;;;;;;;;;;;;;;;;;;;;;;;;;;;;;;;;;;;;;;;;;;;;;;;;;;;;;;;;;;;;;;;;;;;;;;;;;;;;;;;;;;;;;;;;;;;;;;;;;;;;;;;;;;;;;;;;;;;;;;;;;;;;;;;;;;;;;
2005;[7504] LUSTRINO M. (2005);samp. MAR45;;PARANA / SOUTHERN PARANA PROVINCE / VALLE CHICO IGNEOUS COMPLEX;URUGUAY;-33.98;-54.58;-33.98;-54.58;;;OUTCROP;;;SUBAERIAL;VOLCANIC ROCK;TRACHYDACITE;;;;;CRETACEOUS;LOWER;;;;MINERAL / COMPONENT (INCL. GROUNDMASS);APATITE;;;;PRIMARY;;;;;;;;0.94;;;;;;0.13;0.64;;;;;;;;1.06;;51.47;0.58;0.16;;0;;;;;;;;;0.08;41.17;;;;;;;;;3.36;0.94;;;;;;;;;;;;;;;;;;;;;;;;;;;;;;;;;;;;;;;;;;;;;;;;;;;;;;;;;;;;;;;;;;;;;;;;;;;;;;;;;;;;;;;;;;;;;;;;;;;;;;;;;;;;;;;;;;;;;;;;;;;;;;;;;;;;;;;;;;;;;;;;;;;;;;;;;;;;;;;;;;;;;;;;;;;;;;;;;;;;;;;;;;;;;;;;;;;;;;;;;;;;;;;;;;
2000;[7599] FRANCALANCI L. (2000);samp. SH7A;;ANATOLIA-IRAN BELT / TURKEY / WESTERN ANATOLIAN VOLCANIC BELT / AFYON;;38;30;38;30;;;OUTCROP;;;SUBAERIAL;VOLCANIC ROCK;TRACHYDACITE;;;;;NEOGENE;;;;;WHOLE ROCK;;;;;;;;;;;;;62.25;0.81;;;14.86;;;;;;;;;;4.21;;0.68;4.52;3.36;0.09;0.2;0.14;;;;;4.67;XRF;;;3.18;0.46;;;;;;;;;;;;;;0.56;;;;;;;;;;;;;;;;;;;;;;;;;13;NOT;;;;;;;94;56;;;16;25;24;;;;;;;134;NOT;;;1257;NOT;;;26;NOT;;;161;NOT;;;32;NOT;;;;;;;;;;;;;11.5;1743;NOT;;;99;NOT;;;179;NOT;;;20.4;73;NOT;;;11.1;NOT;;;2.64;7.5;0.93;5;0.93;2.17;0.32;2;0.29;4.6;2.43;;;;;;;;38;NOT;;;;;35;NOT;;;;;;;;;;;;;;;;;;;;;;;;;;;;;;;;;;;;;;;;;;;;;;;;;;;;;;;;;;;;;;;;;;;;;;;;;;;;;;;;;;;
1997;[7662] WILSON M. (1997);samp. ÖZ18;;ANATOLIA-IRAN BELT / TURKEY / WESTERN ANATOLIAN VOLCANIC BELT / GALATEAN VOLCANIC MASSIF;ÖZMUS;40.5;32.3;40.5;32.3;;;OUTCROP;;;SUBAERIAL;VOLCANIC ROCK;TRACHYDACITE;;;;;MIOCENE;;;;;WHOLE ROCK;;;;;;;;;;;;;66.26;0.65;;;14.5;;;;;;;;;3.26;;;;2.92;1.5;0.05;;;;;;;4.56;XRF;;;3.19;0.17;;;;;;;;;;;;;;2.27;;;;;;4.019;;;;;;;;;;;;;;;;;;;4;XRF;;;;;;;46;33;;;;20;12;36;;;;;;184;XRF;;;278;XRF;;;20;XRF;;;323;XRF;;;26;XRF;;;;;;;;;;;;;;372;XRF;;;;;;;;;;;;;;;;;;;;;;;;;;;;;;;;;;;;;;;;;;;;33;XRF;;;;0.512797;;;;;0.705096;;;;;;;;;;;;;;;;;;;;;;;;;;;;;;;;;;;;;;;;;;;;;;;;;;;;;;;;;18;K-AR;;;;;;;;;;;;;;;;
1997;[7662] WILSON M. (1997);samp. GÜD16;;ANATOLIA-IRAN BELT / TURKEY / WESTERN ANATOLIAN VOLCANIC BELT / GALATEAN VOLCANIC MASSIF;GÜDÜL;40.2;32;40.2;32;;;OUTCROP;;;SUBAERIAL;VOLCANIC ROCK;TRACHYDACITE;;;;;MIOCENE;;;;;WHOLE ROCK;;;;;;;;;;;;;64.61;0.6;;;15.74;;;;;;;;;3.78;;;;4.09;1.56;0.05;;;;;;;2.93;XRF;;;3.81;0.27;;;;;;;;;;;;;;1.84;;;;;;;;;;;;;;;;;;;;;;;;;4;XRF;;;;;;;49;40;;;;27;14;57;;;;;;93;XRF;;;412;XRF;;;16;XRF;;;235;XRF;;;19;XRF;;;;;;;;;;;;;;650;XRF;;;;;;;;;;;;;;;;;;;;;;;;;;;;;;;;;;;;;;;;;;;;18;XRF;;;;0.512725;;;;;0.705178;;;;;;;;;;;;;;;;;;;;;;;;;;;;;;;;;;;;;;;;;;;;;;;;;;;;;;;;;;;;;;;;;;;;;;;;;;
1997;[7662] WILSON M. (1997);samp. GÜ395;;ANATOLIA-IRAN BELT / TURKEY / CENTRAL ANATOLIAN VOLCANIC BELT / GALATEAN VOLCANIC MASSIF;GÜVEM;40.5;32.6;40.5;32.6;;;OUTCROP;;;SUBAERIAL;VOLCANIC ROCK;TRACHYDACITE;;;;;MIOCENE;;;;;WHOLE ROCK;;;;;;;;;;;;;68.94;0.47;;;15.6;;;;;;;;;2.32;;;;2.21;0.39;0.01;;;;;;;4.83;XRF;;;4.19;0.23;;;;;;;;;;;;;;0.51;;;;;;4.083;;;;;;;;;;;;;;;;;;;;;;;;;;;31;17;;;;8;11;52;;;;;;207;XRF;;;466;XRF;;;16;XRF;;;307;XRF;;;41;XRF;;;;;;;;;;;;;;726;XRF;;;;;;;;;;;;;;;;;;;;;;;;;;;;;;;;;;;;;;;;;;;;43;XRF;;;;0.512605;;;;;0.706088;;;;;;;;;;;;;;;;;;;;;;;;;;;;;;;;;;;;;;;;;;;;;;;;;;;;;;;;;19.7;K-AR;;;;;;;;;;;;;;;;
1997;[7662] WILSON M. (1997);samp. GÜ496;;ANATOLIA-IRAN BELT / TURKEY / CENTRAL ANATOLIAN VOLCANIC BELT / GALATEAN VOLCANIC MASSIF;GÜVEM;40.5;32.6;40.5;32.6;;;OUTCROP;;;SUBAERIAL;VOLCANIC ROCK;TRACHYDACITE;;;;;MIOCENE;;;;;WHOLE ROCK;;;;;;;;;;;;;66.16;0.44;;;17.13;;;;;;;;;2.51;;;;1.57;0.32;0.02;;;;;;;4.52;XRF;;;5.65;0.27;;;;;;;;;;;;;;0.61;;;;;;;;;;;;;;;;;;;;;;;;;3;XRF;;;;;;;18;5;;;;5;6;69;;;;;;144;XRF;;;397;XRF;;;24;XRF;;;401;XRF;;;51;XRF;;;;;;;;;;;;;;843;XRF;;;95.6;ICPMS;;;165.4;ICPMS;;;14.69;45.1;ICPMS;;;6.77;ICPMS;;;1.45;5.08;;4.19;0.75;1.99;;2.48;0.43;;;;;;;;;;;;;;;;32;XRF;;;;0.51274;;;;;0.70546;;;;;;;;;;;;;;;;;;;;;;;;;;;;;;;;;;;;;;;;;;;;;;;;;;;;;;;;;;;;;;;;;;;;;;;;;;
1997;[7662] WILSON M. (1997);samp. GÜ497;;ANATOLIA-IRAN BELT / TURKEY / CENTRAL ANATOLIAN VOLCANIC BELT / GALATEAN VOLCANIC MASSIF;GÜVEM;40.5;32.6;40.5;32.6;;;OUTCROP;;;SUBAERIAL;VOLCANIC ROCK;TRACHYDACITE;;;;;MIOCENE;;;;;WHOLE ROCK;;;;;;;;;;;;;65.61;0.55;;;15.42;;;;;;;;;3.76;;;;3.71;1.8;0.08;;;;;;;4.37;XRF;;;3.23;0.27;;;;;;;;;;;;;;1.52;;;;;;3.63;;;;;;;;;;;;;;;;;;;5;XRF;;;;;;;51;40;;;;31;24;63;;;;;;138;XRF;;;553;XRF;;;14;XRF;;;210;XRF;;;24;XRF;;;;;;;;;;;;;;792;XRF;;;60;ICPMS;;;99.4;ICPMS;;;8.71;28;ICPMS;;;4.64;ICPMS;;;1.13;3.78;;2.83;0.48;1.21;;1.34;0.23;;;;;;;;;;;;;;;;28;XRF;;;;0.51264;;;;;0.70577;;;;;;;;;;;;;;;;;;;;;;;;;;;;;;;;;;;;;;;;;;;;;;;;;;;;;;;;;17.8;K-AR;;;;;;;;;;;;;;;;
1997;[7662] WILSON M. (1997);samp. GÜ502;;ANATOLIA-IRAN BELT / TURKEY / CENTRAL ANATOLIAN VOLCANIC BELT / GALATEAN VOLCANIC MASSIF;GÜVEM;40.5;32.6;40.5;32.6;;;OUTCROP;;;SUBAERIAL;VOLCANIC ROCK;TRACHYDACITE;;;;;MIOCENE;;;;;WHOLE ROCK;;;;;;;;;;;;;69.67;0.52;;;16.01;;;;;;;;;2.84;;;;3.93;0.15;0.01;;;;;;;1.92;XRF;;;4.39;0.15;;;;;;;;;;;;;;0.42;;;;;;;;;;;;;;;;;;;;;;;;;10;XRF;;;;;;;59;28;;;;8;7;34;;;;;;69;XRF;;;339;XRF;;;13;XRF;;;172;XRF;;;8;XRF;;;;;;;;;;;;;;400;XRF;;;18.6;ICPMS;;;36.4;ICPMS;;;3.68;13.7;ICPMS;;;2.91;ICPMS;;;0.73;2.84;;2.46;0.42;1.2;;1.2;0.2;;;;;;;;;;;;;;;;11;XRF;;;;0.51283;;;;;0.70527;;;;;;;;;;;;;;;;;;;;;;;;;;;;;;;;;;;;;;;;;;;;;;;;;;;;;;;;;;;;;;;;;;;;;;;;;;
1997;[7662] WILSON M. (1997);samp. GÜ514;;ANATOLIA-IRAN BELT / TURKEY / CENTRAL ANATOLIAN VOLCANIC BELT / GALATEAN VOLCANIC MASSIF;GÜVEM;40.5;32.6;40.5;32.6;;;OUTCROP;;;SUBAERIAL;VOLCANIC ROCK;TRACHYDACITE;;;;;MIOCENE;;;;;WHOLE ROCK;;;;;;;;;;;;;64.38;0.65;;;16.17;;;;;;;;;4.02;;;;3.84;1.33;0.09;;;;;;;3.88;XRF;;;4.48;0.36;;;;;;;;;;;;;;0.27;;;;;;;;;;;;;;;;;;;;;;;;;1;XRF;;;;;;;47;26;;;;23;19;63;;;;;;151;XRF;;;653;XRF;;;18;XRF;;;274;XRF;;;41;XRF;;;;;;;;;;;;;;719;XRF;;;70.9;ICPMS;;;126.6;ICPMS;;;11.23;35.8;ICPMS;;;5.79;ICPMS;;;1.3;4.53;;3.54;0.61;1.58;;1.85;0.32;;;;;;;;;;;;;;;;35;XRF;;;;0.51269;;;;;0.70562;;;;;;;;;;;;;;;;;;;;;;;;;;;;;;;;;;;;;;;;;;;;;;;;;;;;;;;;;;;;;;;;;;;;;;;;;;
1997;[7662] WILSON M. (1997);samp. KHM13;;ANATOLIA-IRAN BELT / TURKEY / CENTRAL ANATOLIAN VOLCANIC BELT / GALATEAN VOLCANIC MASSIF;KYZILCAHAMAM;40.4927;32.5955;40.4927;32.5955;;;OUTCROP;;;SUBAERIAL;VOLCANIC ROCK;TRACHYDACITE;;;;;MIOCENE;;;;;WHOLE ROCK;;;;;;;;;;;;;66.01;0.63;;;16.11;;;;;;;;;2.68;;;;3.81;1.09;0.04;;;;;;;3.31;XRF;;;3.24;0.24;;;;;;;;;;;;;;2.95;;;;;;;;;;;;;;;;;;;;;;;;;12;XRF;;;;;;;64;86;;;;36;75;68;;;;;;148;XRF;;;419;XRF;;;16;XRF;;;202;XRF;;;18;XRF;;;;;;;;;;;;;;551;XRF;;;;;;;;;;;;;;;;;;;;;;;;;;;;;;;;;;;;;;;;;;;;19;XRF;;;;;;;;;;;;;;;;;;;;;;;;;;;;;;;;;;;;;;;;;;;;;;;;;;;;;;;;;;;;;;;;;;;;;;;;;;;;;;;;;;;
2001;[7752] ROMER R. L. (2001);samp. HA10/2;;EUROPEAN OROGENIC BELT - PALEOZOIC / GERMANY / SAALE BASIN / HALLE VOLCANIC COMPLEX;;51.6;11.9;51.7;12.1;;;OUTCROP;;;SUBAERIAL;VOLCANIC ROCK;TRACHYDACITE;PORPHYRITIC;;325000000;340000000;CARBONIFEROUS;;;;;WHOLE ROCK;;;;;;;;;;;;;63.2;0.57;;;15.4;;;;;;;;;4.25;;;;1.55;2.41;0.05;;;;;;;3.22;XRF;;;5.52;0.26;;;;;2.06;;0.98;;0.061;;;;;;;;;;;;;90;0;;;;;;;;;;;;;;;;7.8;ICPAES;;;;;;;65;72;;;;39;;67;;;;;;103;XRF;;;230;XRF;;;14.3;ICPMS;;;215;XRF;;;10;XRF;;;;;;;;;;0;;;1.1;728;XRF;;;46.2;ICPMS;;;84.9;ICPMS;;;9.68;32.2;ICPMS;;;5.05;ICPMS;;;1.13;3.87;0.5;2.8;0.51;1.44;0.21;1.38;0.22;5.5;;;;;;;;;8;ICPMS;;;;;14.1;ICPMS;;;3.5;0.512327;;;;;0.711327;;;;;;;;;;;;;;;;;;;;;;;;;;;;;;;;;;;;;;;;;;;;;;;;;;;;;;;;;;;;;;;;;;;;;;;;;;
2001;[7752] ROMER R. L. (2001);samp. HA10/1;;EUROPEAN OROGENIC BELT - PALEOZOIC / GERMANY / SAALE BASIN / HALLE VOLCANIC COMPLEX;;51.6;11.9;51.7;12.1;;;OUTCROP;;;SUBAERIAL;VOLCANIC ROCK;TRACHYDACITE;PORPHYRITIC;;325000000;340000000;CARBONIFEROUS;;;;;WHOLE ROCK;;;;;;;;;;;;;63.6;0.55;;;14.9;;;;;;;;;3.7;;;;3.01;1.13;0.06;;;;;;;3.2;XRF;;;5.89;0.25;;;;;1.29;;2.28;;;;;;;;;;;;;;;46;0;;;;;;;;;;;;;;;;8;ICPAES;;;;;;;61;77;;;;42;;40;;;;;;86;XRF;;;174;XRF;;;14.1;ICPMS;;;208;XRF;;;8;XRF;;;;;;;;;;0;;;0.94;594;XRF;;;45;ICPMS;;;83.2;ICPMS;;;9.46;31.7;ICPMS;;;5.09;ICPMS;;;1.19;3.84;0.49;2.7;0.51;1.39;0.2;1.34;0.21;5.4;;;;;;;;;10;ICPMS;;;;;13.8;ICPMS;;;4.9;;;;;;;;;;;;;;;;;;;;;;;;;;;;;;;;;;;;;;;;;;;;;;;;;;;;;;;;;;;;;;;;;;;;;;;;;;;;;;;;
2001;[7752] ROMER R. L. (2001);samp. HA10/8;;EUROPEAN OROGENIC BELT - PALEOZOIC / GERMANY / SAALE BASIN / HALLE VOLCANIC COMPLEX;;51.6;11.9;51.7;12.1;;;OUTCROP;;;SUBAERIAL;VOLCANIC ROCK;TRACHYDACITE;PORPHYRITIC;;325000000;340000000;CARBONIFEROUS;;;;;WHOLE ROCK;;;;;;;;;;;;;64;0.63;;;13.6;;;;;;;;;7.31;;;;2.61;0.73;0.19;;;;;;;3.64;XRF;;;4.09;0.18;;;;;1.92;;0.74;;;;;;;;;;;;;;;33;2;;;;;;;;;;;;;;;;31;ICPAES;;;;;;;15;15;;;;0;;227;;;;;;102;XRF;;;88;XRF;;;32.4;ICPMS;;;307;XRF;;;14;XRF;;;;;;;;;;3;;;0.64;1833;XRF;;;49.7;ICPMS;;;98.8;ICPMS;;;11.8;41.9;ICPMS;;;7.71;ICPMS;;;2.9;6.84;0.98;5.92;1.16;3.32;0.49;3.25;0.53;7.7;;;;;;;;;58.6;ICPMS;;;;;14.3;ICPMS;;;3.7;;;;;;;;;;;;;;;;;;;;;;;;;;;;;;;;;;;;;;;;;;;;;;;;;;;;;;;;;;;;;;;;;;;;;;;;;;;;;;;;
2001;[7752] ROMER R. L. (2001);samp. HA10/10;;EUROPEAN OROGENIC BELT - PALEOZOIC / GERMANY / SAALE BASIN / HALLE VOLCANIC COMPLEX;;51.6;11.9;51.7;12.1;;;OUTCROP;;;SUBAERIAL;VOLCANIC ROCK;TRACHYDACITE;PORPHYRITIC;;325000000;340000000;CARBONIFEROUS;;;;;WHOLE ROCK;;;;;;;;;;;;;63.6;0.59;;;15.7;;;;;;;;;4.02;;;;1.57;1.41;0.07;;;;;;;3.85;XRF;;;5.72;0.15;;;;;1.63;;1.11;;;;;;;;;;;;;;;36;2.3;;;;;;;;;;;;;;;;11;ICPAES;;;;;;;41;18;;;;12;;55;;;;;;149;XRF;;;90;XRF;;;36.7;ICPMS;;;262;XRF;;;19;XRF;;;;;;;;;;7;;;1.5;499;XRF;;;70;ICPMS;;;137;ICPMS;;;16;55.3;ICPMS;;;9.96;ICPMS;;;1.35;8.71;1.2;6.77;1.29;3.55;0.5;3.32;0.51;7.3;;;;;;;;;10.5;ICPMS;;;;;18.9;ICPMS;;;6.2;;;;;;;;;;;;;;;;;;;;;;;;;;;;;;;;;;;;;;;;;;;;;;;;;;;;;;;;;;;;;;;;;;;;;;;;;;;;;;;;