Year;CITATION;SAMPLE NAME;UNIQUE_ID;LOCATION;LOCATION COMMENT;LATITUDE (MIN.);LONGITUDE (MIN.);LATITUDE (MAX.);LONGITUDE (MAX.);ELEVATION (MIN.);ELEVATION (MAX.);SAMPLING TECHNIQUE;DRILLING DEPTH (MIN.);DRILLING DEPTH (MAX.);LAND/SEA (SAMPLING);ROCK TYPE;ROCK NAME;ROCK TEXTURE;SAMPLE COMMENT;AGE (MIN.);AGE (MAX.);GEOLOGICAL AGE;GEOLOGICAL AGE PREFIX;ERUPTION YEAR;ALTERATION;ALTERATION TYPE;TYPE OF MATERIAL;MINERAL / COMPONENT;SPOT (MINERAL);CRYSTAL;RIM / CORE (MINERAL GRAINS);PRIMARY/SECONDARY;INCLUSION TYPE;SPOT (INCLUSION);MINERAL (INCLUSION);RIM / CORE (INCLUSION);HOSTMINERAL (INCLUSION);HEATING;HEATING TEMPERATURE (?C);SIO2(WT%);TIO2(WT%);ZRO2(WT%);B2O3(WT%);AL2O3(WT%);CR2O3(WT%);LA2O3(WT%);CE2O3(WT%);Y2O3(WT%);V2O3(WT%);NB2O3(WT%);TA2O5(WT%);WO3(WT%);FE2O3T(WT%);FE2O3(WT%);FEOT(WT%);FEO(WT%);CAO(WT%);MGO(WT%);MNO(WT%);BAO(WT%);SRO(WT%);NIO(WT%);ZNO(WT%);CS2O(WT%);RB2O(WT%);K2O(WT%);;;;NA2O(WT%);P2O5(WT%);H2O(WT%);;;;H2OP(WT%);H2OM(WT%);CO2(WT%);C(WT%);F(WT%);CL(WT%);SO2(WT%);SO3(WT%);S(WT%);LOI(WT%);AL(WT%);TI(WT%);FE(WT%);MG(WT%);CA(WT%);K(WT%);NA(WT%);LI(PPM);BE(PPM);B(PPM);C(PPM);F(PPM);NA(PPM);MG(PPM);AL(PPM);P(PPM);S(PPM);CL(PPM);AR40(AT/G);AR40(CCMSTP/G);AR40(MOL/G);AR40(PPB);K(PPM);CA(PPM);SC(PPM);;;;TI(PPM);;;;V(PPM);CR(PPM);MN(PPM);FE(PPM);CO(PPM);NI(PPM);CU(PPM);ZN(PPM);GA(PPM);GE(PPM);AS(PPM);SE(PPM);BR(PPM);RB(PPM): altern. values or methods;;;;SR(PPM): altern. values or methods;;;;Y(PPM): altern. values or methods;;;;ZR(PPM): altern. values or methods;;;;NB(PPM): altern. values or methods;;;;MO(PPM): altern. values or methods;;;;AG(PPM);CD(PPM);IN(PPM);SN(PPM);SB(PPM);TE(PPM);CS(PPM);BA(PPM): altern. values or methods;;;;LA(PPM): altern. values or methods;;;;CE(PPM): altern. values or methods;;;;PR(PPM);ND(PPM): altern. values or methods;;;;SM(PPM): altern. values or methods;;;;EU(PPM);GD(PPM);TB(PPM);DY(PPM);HO(PPM);ER(PPM);TM(PPM);YB(PPM);LU(PPM);HF(PPM);TA(PPM);W(PPM);RE(PPM);AU(PPM);AU(PPB);HG(PPM);HG(PPB);TL(PPM);PB(PPM): altern. values or methods;;;;PB206(PPM);BI(PPM);TH(PPM): altern. values or methods;;;;U(PPM);ND143_ND144;ND143_ND144_INI;EPSILON_ND;EPSILON_ND_INI;SM147_ND144;SR87_SR86;SR87_SR86_INI;EPSILON_SR;EPSILON_SR_INI;RB87_SR86;PB206_PB204;PB206_PB204_INI;PB206_PB207;PB206_PB208;PB207_PB204;PB207_PB204_INI;PB207_PB206;PB208_PB204;PB208_PB204_INI;PB208_PB206;HF176_HF177;HF176_HF177_INI;EPSILON_HF_INI;LU176_HF177;YB176_HF177;AR36_AR39;AR36_AR40;AR37_AR39;AR38_AR39;AR39_AR40;AR40_AR36;AR40_AR39;PB206_U238;PB207_U235;PB208_TH232;TH232_PB204;TH232_U238;U235_PB204;U238_PB204;U238_PB206;D7LI(VS LSVEC);D18O(PER MIL);D18O(VS SMOW);D18O(VS VSMOW);D56FE(VS IRMM-014);D57FE(VS IRMM-014);DD(VS SMOW);ALBITE(MOL%);ANORTHITE(MOL%);CA OLIVINE(MOL%);ENSTATITE(MOL%);FAYALITE(MOL%);FORSTERITE(MOL%);FERROSILITE(MOL%);ORTHOCLASE(MOL%);TEPHROITE(MOL%);ULVOSPINEL(MOL%);WOLLASTONITE(MOL%);AGE(KA): altern. values or methods;;;;AGE(MA): altern. values or methods;;;;;;;;AGE_PB207_PB206(MA);AGE_PB207_U235(MA);AGE_PB206_U238(MA): altern. values or methods;;;;;;AGE_PB208_TH232(MA);
2002;[15416] VORONTSOV A. A. (2002);samp. VI7/15;;CENTRAL ASIAN FOLDBELT - CENOZOIC/QUATERNARY / BAIKAL RIFT / DZHIDA VOLCANIC FIELD / BARUN-BURINKHAN;DZHIDA RIVER BASIN;50.45;103.6;50.45;103.6;;;OUTCROP;;;SUBAERIAL;VOLCANIC ROCK;TRACHYDACITE;;;132000000;153000000;MESOZOIC;;;;;WHOLE ROCK;;;;;;;;;;;;;65.96;0.67;;;16.97;;;;;;;;;;3.45;;0.45;0.36;0.14;0.03;;;;;;;4.91;XRF;;;6.27;0.21;;;;;;;;;;;;;;0.48;;;;;;;;;;;;;;;;;;;;;;;;;;;;;;;;;;91;;;;8;;;;;;;;120;AES;;;72;XRF;;;;;;;645;XRF;;;31;XRF;;;;;;;;;;1.1;;;;270;XRF;;;52.4;INAA;;;111;INAA;;;13.5;48.8;INAA;;;7.27;INAA;;;1.56;4.89;0.62;3.23;0.58;1.54;0.21;1.39;0.21;;;;;;;;;;43;INAA;;;;;;;;;;;;;;;;;;;;;;;;;;;;;;;;;;;;;;;;;;;;;;;;;;;;;;;;;;;;;;;;;;;;;;;;;;;;;;;;;;;;;;;;;
2005;[15438] PORTNYAGIN M. V. (2005);samp. G-2256/2;;KAMCHATKA ARC / KAMCHATKA ARC / SOUTHERN KAMCHATKA SEGMENT / KHAILULIA;SOUTHERN FLANK;57.927;161.759;57.927;161.759;;;OUTCROP;;;SUBAERIAL;VOLCANIC ROCK;TRACHYDACITE;;;;;QUATERNARY;;;;;WHOLE ROCK;;;;;;;;;;;;;63.2;0.66;;;16.87;;;;;;;;;;;4.65;;3.4;1.43;0.11;;;;;;;2.09;XRF;;;5.36;0.35;0.9;IRP;;;;;0.04;;;;;;;;;;;;;;;;;;;;;;;;;;;;;;;;;;;;;;;;27;0;;;7;0;;68;17;;;;;30;XRF;;;414;XRF;;;20;XRF;;;238;XRF;;;15;XRF;;;;;;;;;;;;;;332;XRF;;;;;;;;;;;;;;;;;;;;;;;;;;;;;;;;;;;;;;;;;;;;;;;;;;;;;;;;;;;;;;;;;;;;;;;;;;;;;;;;;;;;;;;;;;;;;;;;;;;;;;;;;;;;;;;;;;;;;;;;;;;;;;;;
2005;[15438] PORTNYAGIN M. V. (2005);samp. G-2256/3;;KAMCHATKA ARC / KAMCHATKA ARC / SOUTHERN KAMCHATKA SEGMENT / KHAILULIA;SOUTHERN FLANK;57.92;161.759;57.92;161.759;;;OUTCROP;;;SUBAERIAL;VOLCANIC ROCK;TRACHYDACITE;;;;;QUATERNARY;;;;;WHOLE ROCK;;;;;;;;;;;;;61.8;0.8;;;17.19;;;;;;;;;;;5.46;;3.44;1.57;0.1;;;;;;;1.97;XRF;;;5.34;0.38;0.67;IRP;;;;;0.08;;;;;;;;;;;;;;;21.8;;;;;;;;;;;;;;;;;20.4;ICPMS;;;;;;;44;2;;;10.8;2.7;10;72.5;20.9;;;;;28;XRF;;;382;XRF;;;22.1;XRF;;;241;XRF;;;13.7;XRF;;;1.96;ICPMS;;;;;;1.68;0.259;;1;342;XRF;;;19.3;ICPMS;;;39.6;ICPMS;;;4.95;18.9;ICPMS;;;3.91;ICPMS;;;1.27;3.73;0.6;3.5;0.69;1.94;0.29;1.96;0.29;4.66;0.82;0.255;;;;;;0.24;8.03;ICPMS;;;;;3.51;ICPMS;;;1.67;;;;;;;;;;;;;;;;;;;;;;;;;;;;;;;;;;;;;;;;;;;;;;;;;;;;;;;;;;;;;;;;;;;;;;;;;;;;;;;;
2005;[15438] PORTNYAGIN M. V. (2005);samp. G-2258;;KAMCHATKA ARC / KAMCHATKA ARC / SOUTHERN KAMCHATKA SEGMENT / KHAILULIA;SOUTHERN FLANK;57.928;161.718;57.928;161.718;;;OUTCROP;;;SUBAERIAL;VOLCANIC ROCK;TRACHYDACITE;;;;;QUATERNARY;;;;;WHOLE ROCK;;;;;;;;;;;;;64.37;0.56;;;17.03;;;;;;;;;;;4.25;;3.07;1.24;0.1;;;;;;;2.13;XRF;;;5.59;0.29;0.75;IRP;;;;;0.02;;;;;;;;;;;;;;;;;;;;;;;;;;;;;;;;;;;;;;;;29;0;;;8;0;;68;20;;;;;32;XRF;;;404;XRF;;;18;XRF;;;245;XRF;;;15;XRF;;;;;;;;;;;;;;381;XRF;;;;;;;;;;;;;;;;;;;;;;;;;;;;;;;;;;;;;;;;;;;;;;;;;;;;;;;;;;;;;;;;;;;;;;;;;;;;;;;;;;;;;;;;;;;;;;;;;;;;;;;;;;;;;;;;;;;;;;;;;;;;;;;;
1997;[15446] GORDIENKO I. V. (1997);samp. 5;;CENTRAL ASIAN FOLDBELT - MESOZOIC / TRANSBAIKALIA - MESOZOIC / WESTERN TRANSBAIKALIA;TUGNUI DEPRESSION;51;107;51.1;108;;;OUTCROP;;;SUBAERIAL;VOLCANIC ROCK;TRACHYDACITE;;;;;JURASSIC;;;;;WHOLE ROCK;;;;;;;;;;;;;66.5;0.54;;;15.47;;;;;;;;;;2.02;;1.12;0.85;0.4;0.05;;;;;;;5.15;WET;;;5.77;0.14;;;;;;;;;;;;;;;;;;;;;;16.7;3.6;;;;;;;;;;;;;;;;;;;;;;;;37.3;8.4;;;3.5;12.4;10.3;;;;;;;123.7;NOT;;;256;NOT;;;;;;;;;;;;;;;;;;;;;;;;;;601;NOT;;;;;;;;;;;;;;;;;;;;;;;;;;;;;;;;;;;;;;26;NOT;;;;;;;;;;;;;;;;;;;;;;;;;;;;;;;;;;;;;;;;;;;;;;;;;;;;;;;;;;;;;;;;;;;;;;;;;;;;;;;;;;;;;;;;;
1997;[15446] GORDIENKO I. V. (1997);samp. 4;;CENTRAL ASIAN FOLDBELT - MESOZOIC / TRANSBAIKALIA - MESOZOIC / WESTERN TRANSBAIKALIA;TUGNUI DEPRESSION;51;107;51.1;108;;;OUTCROP;;;SUBAERIAL;VOLCANIC ROCK;TRACHYDACITE;;;;;JURASSIC;;;;;WHOLE ROCK;;;;;;;;;;;;;;;;;;;;;;;;;;;;;;;;;;;;;;;;;;;;;;;;;;;;;;;;;;;;;;;;;;;;;;;;;;;;;;;;;;;;;;;;;;;;;;;;;;;;;;;;43.6;TIMS_ID;;;137.5;TIMS_ID;;;;;;;;;;;;;;;;;;;;;;;;;;;;;;;;;;;;;;;;;;;;;;;;;;;;;;;;;;;;;;;;;;;;;;;;;;;;;;;;;0.72608;;;;9.145;;;;;;;;;;;;;;;;;;;;;;;;;;;;;;;;;;;;;;;;;;;;;;;;;;;;;;;;;;;;;;;;;;;;;;
1997;[15451] PETROVA Z. I. (1997);samp. AK-1;;CENTRAL ASIAN FOLDBELT - PROTEROZOIC / BAIKAL-PATOM REGION / NORTH BAIKAL VOLCANOPLUTONIC BELT / AKITKAN GROUP;UMBELLA LAKE AND OKUNAIKA RIVER;56;110;56;110;;;OUTCROP;;;SUBAERIAL;VOLCANIC ROCK;TRACHYDACITE;;;;;PROTEROZOIC;;;;;WHOLE ROCK;;;;;;;;;;;;;63.37;1.05;;;13.95;;;;;;;;;;3.23;;4.56;3.15;1.11;0.15;;;;;;;5.02;NOT;;;3.16;0.33;;;;;;;;;;;;;;;;;;;;;;12;5.7;5;;120;;;;;;;;;;;;;20;AES;;;;;;;29;5.3;;;8.2;6.6;;250;;;;;;242;AES;;;130;AES;;;83;AES;;;740;AES;;;45;AES;;;;;;;;;;10;;;5;1400;AES;;;120;AES;;;255;AES;;;;94;AES;;;;;;;;;;;;;;8.3;;13.5;1;;;;;;;;59;AES;;;;;;;;;;;;;;;;;;;;;;;;;;;;;;;;;;;;;;;;;;;;;;;;;;;;;;;;;;;;;;;;;;;;;;;;;;;;;;;;;;;;;;;;;
1997;[15451] PETROVA Z. I. (1997);samp. AK-2;;CENTRAL ASIAN FOLDBELT - PROTEROZOIC / BAIKAL-PATOM REGION / NORTH BAIKAL VOLCANOPLUTONIC BELT / AKITKAN GROUP;UMBELLA LAKE AND OKUNAIKA RIVER;56;110;56;110;;;OUTCROP;;;SUBAERIAL;VOLCANIC ROCK;TRACHYDACITE;;;;;PROTEROZOIC;;;;;WHOLE ROCK;;;;;;;;;;;;;63.03;1.06;;;13.64;;;;;;;;;;4.34;;3.44;2.99;0.93;0.14;;;;;;;4.72;NOT;;;3.55;0.33;;;;;;;;;;;;;;;;;;;;;;14;4.9;40;;110;;;;;;;;;;;;;24;AES;;;;;;;28;9;;;14;10;;320;;;;;;175;AES;;;90;AES;;;90;AES;;;680;AES;;;36.5;AES;;;;;;;;;;10;;;5;910;AES;;;125;AES;;;255;AES;;;;94;AES;;;;;;;;;;;;;;10;;10.5;1;;;;;;;;68;AES;;;;;;;;;;;;;;;;;;;;;;;;;;;;;;;;;;;;;;;;;;;;;;;;;;;;;;;;;;;;;;;;;;;;;;;;;;;;;;;;;;;;;;;;;
1997;[15451] PETROVA Z. I. (1997);samp. AK-4;;CENTRAL ASIAN FOLDBELT - PROTEROZOIC / BAIKAL-PATOM REGION / NORTH BAIKAL VOLCANOPLUTONIC BELT / AKITKAN GROUP;UMBELLA LAKE AND OKUNAIKA RIVER;56;110;56;110;;;OUTCROP;;;SUBAERIAL;VOLCANIC ROCK;TRACHYDACITE;;;;;PROTEROZOIC;;;;;WHOLE ROCK;;;;;;;;;;;;;63.6;1.07;;;13.95;;;;;;;;;;2.8;;5.07;3.06;1.03;0.15;;;;;;;5.34;NOT;;;2.84;0.33;;;;;;;;;;;;;;;;;;;;;;9;7.2;4;;100;;;;;;;;;;;;;18;AES;;;;;;;30;2.5;;;12;7.7;;230;;;;;;240;AES;;;110;AES;;;110;AES;;;1050;AES;;;50;AES;;;;;;;;;;8.9;;;6;1100;AES;;;140;AES;;;270;AES;;;;101;AES;;;;;;;;;;;;;;10;;22;2.2;;;;;;;;57;AES;;;;;;;;;;;;;;;;;;;;;;;;;;;;;;;;;;;;;;;;;;;;;;;;;;;;;;;;;;;;;;;;;;;;;;;;;;;;;;;;;;;;;;;;;
1997;[15451] PETROVA Z. I. (1997);samp. AK-11;;CENTRAL ASIAN FOLDBELT - PROTEROZOIC / BAIKAL-PATOM REGION / NORTH BAIKAL VOLCANOPLUTONIC BELT / AKITKAN GROUP;UMBELLA LAKE AND OKUNAIKA RIVER;56;110;56;110;;;OUTCROP;;;SUBAERIAL;VOLCANIC ROCK;TRACHYDACITE;;;;;PROTEROZOIC;;;;;WHOLE ROCK;;;;;;;;;;;;;63.65;1.04;;;13.85;;;;;;;;;;3.48;;4.31;3.06;1.03;0.14;;;;;;;5.34;NOT;;;2.82;0.32;;;;;;;;;;;;;;;;;;;;;;7;6;4;;75;;;;;;;;;;;;;20;AES;;;;;;;35;7.6;;;11;13;;230;;;;;;242;AES;;;100;AES;;;92;AES;;;675;AES;;;38.5;AES;;;;;;;;;;10;;;4;1300;AES;;;140;AES;;;240;AES;;;;92;AES;;;;;;;;;;;;;;13;;15;1.5;;;;;;;;66;AES;;;;;;;;;;;;;;;;;;;;;;;;;;;;;;;;;;;;;;;;;;;;;;;;;;;;;;;;;;;;;;;;;;;;;;;;;;;;;;;;;;;;;;;;;
2011;[15494] AKININ V. V. (2011);samp. 1576L4;;OKHOTSK-CHUKOTKA ARC / OKHOTSK ARC - MESOZOIC / WESTERN OKHOTSK SECTOR / GAVYN SEQUENCE;UL^YA DEPRESSION, BASIN OF UL^YA RIVER;58.2;139.2;58.2;139.2;;;OUTCROP;;;SUBAERIAL;VOLCANIC ROCK;TRACHYDACITE;;IGNIMBRITE;;;CRETACEOUS;;;;;MINERAL / COMPONENT (INCL. GROUNDMASS);ZIRCON;;;;PRIMARY;;;;;;;;;;;;;;;;;;;;;;;;;;;;;;;;;;;;;;;;;;;;;;;;;;;;;;;;;;;;;;;;;;;;;;;;;;;;;;;;;;;;;;;;;;;;;;;;;;;;;;;;;;;;;;;;;;;;;;;;;;;;;;;;;;;;;;;;;;;;;;;;;;;;;;;;;;;;;;;;;;;;;;;;;;;;;2.63;;271;SHRIMP;;;219;;;;;;;;;;;;;;;;;0.0594;;;;;;;;;;;;;;;;0.01366;0.077;;;1.28;;;71.5;;;;;;;;;;;;;;;;;;;;;;;;;;;;;;;;;88.2;PB206_U238 AGE;;;;;;
2011;[15494] AKININ V. V. (2011);samp. 1576L4;;OKHOTSK-CHUKOTKA ARC / OKHOTSK ARC - MESOZOIC / WESTERN OKHOTSK SECTOR / GAVYN SEQUENCE;UL^YA DEPRESSION, BASIN OF UL^YA RIVER;58.2;139.2;58.2;139.2;;;OUTCROP;;;SUBAERIAL;VOLCANIC ROCK;TRACHYDACITE;;IGNIMBRITE;;;CRETACEOUS;;;;;MINERAL / COMPONENT (INCL. GROUNDMASS);ZIRCON;;;;PRIMARY;;;;;;;;;;;;;;;;;;;;;;;;;;;;;;;;;;;;;;;;;;;;;;;;;;;;;;;;;;;;;;;;;;;;;;;;;;;;;;;;;;;;;;;;;;;;;;;;;;;;;;;;;;;;;;;;;;;;;;;;;;;;;;;;;;;;;;;;;;;;;;;;;;;;;;;;;;;;;;;;;;;;;;;;;;;;;4.13;;257;SHRIMP;;;332;;;;;;;;;;;;;;;;;0.0508;;;;;;;;;;;;;;;;0.01431;0.08;;;0.8;;;69;;;;;;;;;;;;;;;;;;;;;;;;;;;;;;;;;92.4;PB206_U238 AGE;;;;;;
2011;[15494] AKININ V. V. (2011);samp. 1576L4;;OKHOTSK-CHUKOTKA ARC / OKHOTSK ARC - MESOZOIC / WESTERN OKHOTSK SECTOR / GAVYN SEQUENCE;UL^YA DEPRESSION, BASIN OF UL^YA RIVER;58.2;139.2;58.2;139.2;;;OUTCROP;;;SUBAERIAL;VOLCANIC ROCK;TRACHYDACITE;;IGNIMBRITE;;;CRETACEOUS;;;;;MINERAL / COMPONENT (INCL. GROUNDMASS);ZIRCON;;;;PRIMARY;;;;;;;;;;;;;;;;;;;;;;;;;;;;;;;;;;;;;;;;;;;;;;;;;;;;;;;;;;;;;;;;;;;;;;;;;;;;;;;;;;;;;;;;;;;;;;;;;;;;;;;;;;;;;;;;;;;;;;;;;;;;;;;;;;;;;;;;;;;;;;;;;;;;;;;;;;;;;;;;;;;;;;;;;;;;;4.46;;568;SHRIMP;;;370;;;;;;;;;;;;;;;;;0.0519;;;;;;;;;;;;;;;;0.01398;0.0916;;;1.59;;;71.1;;;;;;;;;;;;;;;;;;;;;;;;;;;;;;;;;89.5;PB206_U238 AGE;;;;;;
2011;[15494] AKININ V. V. (2011);samp. 1576L4;;OKHOTSK-CHUKOTKA ARC / OKHOTSK ARC - MESOZOIC / WESTERN OKHOTSK SECTOR / GAVYN SEQUENCE;UL^YA DEPRESSION, BASIN OF UL^YA RIVER;58.2;139.2;58.2;139.2;;;OUTCROP;;;SUBAERIAL;VOLCANIC ROCK;TRACHYDACITE;;IGNIMBRITE;;;CRETACEOUS;;;;;MINERAL / COMPONENT (INCL. GROUNDMASS);ZIRCON;;;;PRIMARY;;;;;;;;;;;;;;;;;;;;;;;;;;;;;;;;;;;;;;;;;;;;;;;;;;;;;;;;;;;;;;;;;;;;;;;;;;;;;;;;;;;;;;;;;;;;;;;;;;;;;;;;;;;;;;;;;;;;;;;;;;;;;;;;;;;;;;;;;;;;;;;;;;;;;;;;;;;;;;;;;;;;;;;;;;;;;0.65;;45;SHRIMP;;;57;;;;;;;;;;;;;;;;;0.0534;;;;;;;;;;;;;;;;0.01323;0.097;;;0.81;;;75.6;;;;;;;;;;;;;;;;;;;;;;;;;;;;;;;;;84.1;PB206_U238 AGE;;;;;;
2011;[15494] AKININ V. V. (2011);samp. 1576L4;;OKHOTSK-CHUKOTKA ARC / OKHOTSK ARC - MESOZOIC / WESTERN OKHOTSK SECTOR / GAVYN SEQUENCE;UL^YA DEPRESSION, BASIN OF UL^YA RIVER;58.2;139.2;58.2;139.2;;;OUTCROP;;;SUBAERIAL;VOLCANIC ROCK;TRACHYDACITE;;IGNIMBRITE;;;CRETACEOUS;;;;;MINERAL / COMPONENT (INCL. GROUNDMASS);ZIRCON;;;;PRIMARY;;;;;;;;;;;;;;;;;;;;;;;;;;;;;;;;;;;;;;;;;;;;;;;;;;;;;;;;;;;;;;;;;;;;;;;;;;;;;;;;;;;;;;;;;;;;;;;;;;;;;;;;;;;;;;;;;;;;;;;;;;;;;;;;;;;;;;;;;;;;;;;;;;;;;;;;;;;;;;;;;;;;;;;;;;;;;18;;5335;SHRIMP;;;1466;;;;;;;;;;;;;;;;;0.0485;;;;;;;;;;;;;;;;0.01424;0.0939;;;3.76;;;70.1;;;;;;;;;;;;;;;;;;;;;;;;;;;;;;;;;91.2;PB206_U238 AGE;;;;;;
2011;[15494] AKININ V. V. (2011);samp. 1576L4;;OKHOTSK-CHUKOTKA ARC / OKHOTSK ARC - MESOZOIC / WESTERN OKHOTSK SECTOR / GAVYN SEQUENCE;UL^YA DEPRESSION, BASIN OF UL^YA RIVER;58.2;139.2;58.2;139.2;;;OUTCROP;;;SUBAERIAL;VOLCANIC ROCK;TRACHYDACITE;;IGNIMBRITE;;;CRETACEOUS;;;;;MINERAL / COMPONENT (INCL. GROUNDMASS);ZIRCON;;;;PRIMARY;;;;;;;;;;;;;;;;;;;;;;;;;;;;;;;;;;;;;;;;;;;;;;;;;;;;;;;;;;;;;;;;;;;;;;;;;;;;;;;;;;;;;;;;;;;;;;;;;;;;;;;;;;;;;;;;;;;;;;;;;;;;;;;;;;;;;;;;;;;;;;;;;;;;;;;;;;;;;;;;;;;;;;;;;;;;;2.01;;122;SHRIMP;;;167;;;;;;;;;;;;;;;;;0.0572;;;;;;;;;;;;;;;;0.01371;0.081;;;0.75;;;71.7;;;;;;;;;;;;;;;;;;;;;;;;;;;;;;;;;88.3;PB206_U238 AGE;;;;;;
2011;[15494] AKININ V. V. (2011);samp. 1576L4;;OKHOTSK-CHUKOTKA ARC / OKHOTSK ARC - MESOZOIC / WESTERN OKHOTSK SECTOR / GAVYN SEQUENCE;UL^YA DEPRESSION, BASIN OF UL^YA RIVER;58.2;139.2;58.2;139.2;;;OUTCROP;;;SUBAERIAL;VOLCANIC ROCK;TRACHYDACITE;;IGNIMBRITE;;;CRETACEOUS;;;;;MINERAL / COMPONENT (INCL. GROUNDMASS);ZIRCON;;;;PRIMARY;;;;;;;;;;;;;;;;;;;;;;;;;;;;;;;;;;;;;;;;;;;;;;;;;;;;;;;;;;;;;;;;;;;;;;;;;;;;;;;;;;;;;;;;;;;;;;;;;;;;;;;;;;;;;;;;;;;;;;;;;;;;;;;;;;;;;;;;;;;;;;;;;;;;;;;;;;;;;;;;;;;;;;;;;;;;;2.34;;314;SHRIMP;;;192;;;;;;;;;;;;;;;;;0.0469;;;;;;;;;;;;;;;;0.0142;0.0919;;;1.69;;;70.4;;;;;;;;;;;;;;;;;;;;;;;;;;;;;;;;;91;PB206_U238 AGE;;;;;;
2011;[15494] AKININ V. V. (2011);samp. 1576L4;;OKHOTSK-CHUKOTKA ARC / OKHOTSK ARC - MESOZOIC / WESTERN OKHOTSK SECTOR / GAVYN SEQUENCE;UL^YA DEPRESSION, BASIN OF UL^YA RIVER;58.2;139.2;58.2;139.2;;;OUTCROP;;;SUBAERIAL;VOLCANIC ROCK;TRACHYDACITE;;IGNIMBRITE;;;CRETACEOUS;;;;;MINERAL / COMPONENT (INCL. GROUNDMASS);ZIRCON;;;;PRIMARY;;;;;;;;;;;;;;;;;;;;;;;;;;;;;;;;;;;;;;;;;;;;;;;;;;;;;;;;;;;;;;;;;;;;;;;;;;;;;;;;;;;;;;;;;;;;;;;;;;;;;;;;;;;;;;;;;;;;;;;;;;;;;;;;;;;;;;;;;;;;;;;;;;;;;;;;;;;;;;;;;;;;;;;;;;;;;4.6;;556;SHRIMP;;;397;;;;;;;;;;;;;;;;;0.049;;;;;;;;;;;;;;;;0.01344;0.0824;;;1.45;;;74;;;;;;;;;;;;;;;;;;;;;;;;;;;;;;;;;86.4;PB206_U238 AGE;;;;;;
2011;[15494] AKININ V. V. (2011);samp. 1576L4;;OKHOTSK-CHUKOTKA ARC / OKHOTSK ARC - MESOZOIC / WESTERN OKHOTSK SECTOR / GAVYN SEQUENCE;UL^YA DEPRESSION, BASIN OF UL^YA RIVER;58.2;139.2;58.2;139.2;;;OUTCROP;;;SUBAERIAL;VOLCANIC ROCK;TRACHYDACITE;;IGNIMBRITE;;;CRETACEOUS;;;;;MINERAL / COMPONENT (INCL. GROUNDMASS);ZIRCON;;;;PRIMARY;;;;;;;;;;;;;;;;;;;;;;;;;;;;;;;;;;;;;;;;;;;;;;;;;;;;;;;;;;;;;;;;;;;;;;;;;;;;;;;;;;;;;;;;;;;;;;;;;;;;;;;;;;;;;;;;;;;;;;;;;;;;;;;;;;;;;;;;;;;;;;;;;;;;;;;;;;;;;;;;;;;;;;;;;;;;;3.4;;435;SHRIMP;;;280;;;;;;;;;;;;;;;;;0.0545;;;;;;;;;;;;;;;;0.01408;0.0989;;;1.61;;;70.71;;;;;;;;;;;;;;;;;;;;;;;;;;;;;;;;;89.8;PB206_U238 AGE;;;;;;
2011;[15549] ANDREEVA I. A. (2011);samp. TRACHYDACITE;;CENTRAL ASIAN FOLDBELT - PALEOZOIC / MONGOLIA - PALEOZOIC / CENTRAL MONGOLIA / DZARTA-KUDUK PALEOVOLCANO;;48;110;48;110;;;OUTCROP;;;SUBAERIAL;VOLCANIC ROCK;TRACHYDACITE;PORPHYRITIC, TRACHYTOID GROUNDMASS;;211000000;211000000;TRIASSIC;;;;;MINERAL / COMPONENT (INCL. GROUNDMASS);ANORTHOCLASE;;;;PRIMARY;;;;;;;;66.79;0.03;;;18.82;;;;;;;;;;;0.47;;0.1;0.02;;0.04;0.05;;;;;5.98;EMP (EPMA);;;7.51;;;;;;;;;;;;;;;;;;;;;;;;;;;;;;;;;;;;;;;;;;;;;;;;;;;;;;;;;;;;;;;;;;;;;;;;;;;;;;;;;;;;;;;;;;;;;;;;;;;;;;;;;;;;;;;;;;;;;;;;;;;;;;;;;;;;;;;;;;;;;;;;;;;;;;;;;;;;;;;;;;;;;;;;;;;;;;;;;;;;;;;;;;;;;;;;;;;;;;;;;;;;;;;;;;;;;;;;;;;;;
2011;[15549] ANDREEVA I. A. (2011);samp. TRACHYDACITE;;CENTRAL ASIAN FOLDBELT - PALEOZOIC / MONGOLIA - PALEOZOIC / CENTRAL MONGOLIA / DZARTA-KUDUK PALEOVOLCANO;;48;110;48;110;;;OUTCROP;;;SUBAERIAL;VOLCANIC ROCK;TRACHYDACITE;PORPHYRITIC, TRACHYTOID GROUNDMASS;;211000000;211000000;TRIASSIC;;;;;MINERAL / COMPONENT (INCL. GROUNDMASS);ANORTHOCLASE;;;;PRIMARY;;;;;;;;67.47;0.01;;;18.74;;;;;;;;;;;0.59;;0.03;0.01;;0;0;;;;;6.33;EMP (EPMA);;;7.19;;;;;;;;;;;;;;;;;;;;;;;;;;;;;;;;;;;;;;;;;;;;;;;;;;;;;;;;;;;;;;;;;;;;;;;;;;;;;;;;;;;;;;;;;;;;;;;;;;;;;;;;;;;;;;;;;;;;;;;;;;;;;;;;;;;;;;;;;;;;;;;;;;;;;;;;;;;;;;;;;;;;;;;;;;;;;;;;;;;;;;;;;;;;;;;;;;;;;;;;;;;;;;;;;;;;;;;;;;;;;
2011;[15549] ANDREEVA I. A. (2011);samp. TRACHYDACITE;;CENTRAL ASIAN FOLDBELT - PALEOZOIC / MONGOLIA - PALEOZOIC / CENTRAL MONGOLIA / DZARTA-KUDUK PALEOVOLCANO;;48;110;48;110;;;OUTCROP;;;SUBAERIAL;VOLCANIC ROCK;TRACHYDACITE;PORPHYRITIC, TRACHYTOID GROUNDMASS;;211000000;211000000;TRIASSIC;;;;;MINERAL / COMPONENT (INCL. GROUNDMASS);ANORTHOCLASE;;;;PRIMARY;;;;;;;;66.47;0;;;18.64;;;;;;;;;;;0.54;;0;0.02;;0;0.08;;;;;6.09;EMP (EPMA);;;7.22;;;;;;;;;;;;;;;;;;;;;;;;;;;;;;;;;;;;;;;;;;;;;;;;;;;;;;;;;;;;;;;;;;;;;;;;;;;;;;;;;;;;;;;;;;;;;;;;;;;;;;;;;;;;;;;;;;;;;;;;;;;;;;;;;;;;;;;;;;;;;;;;;;;;;;;;;;;;;;;;;;;;;;;;;;;;;;;;;;;;;;;;;;;;;;;;;;;;;;;;;;;;;;;;;;;;;;;;;;;;;
2011;[15549] ANDREEVA I. A. (2011);samp. TRACHYDACITE;;CENTRAL ASIAN FOLDBELT - PALEOZOIC / MONGOLIA - PALEOZOIC / CENTRAL MONGOLIA / DZARTA-KUDUK PALEOVOLCANO;;48;110;48;110;;;OUTCROP;;;SUBAERIAL;VOLCANIC ROCK;TRACHYDACITE;PORPHYRITIC, TRACHYTOID GROUNDMASS;;211000000;211000000;TRIASSIC;;;;;MINERAL / COMPONENT (INCL. GROUNDMASS);ANORTHOCLASE;;;;PRIMARY;;;;;;;;67.45;0.01;;;18.71;;;;;;;;;;;0.54;;0.03;0;;0.04;0.12;;;;;5.98;EMP (EPMA);;;7.33;;;;;;;;;;;;;;;;;;;;;;;;;;;;;;;;;;;;;;;;;;;;;;;;;;;;;;;;;;;;;;;;;;;;;;;;;;;;;;;;;;;;;;;;;;;;;;;;;;;;;;;;;;;;;;;;;;;;;;;;;;;;;;;;;;;;;;;;;;;;;;;;;;;;;;;;;;;;;;;;;;;;;;;;;;;;;;;;;;;;;;;;;;;;;;;;;;;;;;;;;;;;;;;;;;;;;;;;;;;;;
2011;[15549] ANDREEVA I. A. (2011);samp. TRACHYDACITE;;CENTRAL ASIAN FOLDBELT - PALEOZOIC / MONGOLIA - PALEOZOIC / CENTRAL MONGOLIA / DZARTA-KUDUK PALEOVOLCANO;;48;110;48;110;;;OUTCROP;;;SUBAERIAL;VOLCANIC ROCK;TRACHYDACITE;PORPHYRITIC, TRACHYTOID GROUNDMASS;;211000000;211000000;TRIASSIC;;;;;MINERAL / COMPONENT (INCL. GROUNDMASS);ANORTHOCLASE;;;;PRIMARY;;;;;;;;66.63;0.02;;;18.62;;;;;;;;;;;0.4;;0.1;0;;0.02;0;;;;;5.92;EMP (EPMA);;;7.45;;;;;;;;;;;;;;;;;;;;;;;;;;;;;;;;;;;;;;;;;;;;;;;;;;;;;;;;;;;;;;;;;;;;;;;;;;;;;;;;;;;;;;;;;;;;;;;;;;;;;;;;;;;;;;;;;;;;;;;;;;;;;;;;;;;;;;;;;;;;;;;;;;;;;;;;;;;;;;;;;;;;;;;;;;;;;;;;;;;;;;;;;;;;;;;;;;;;;;;;;;;;;;;;;;;;;;;;;;;;;
2011;[15549] ANDREEVA I. A. (2011);samp. TRACHYDACITE;;CENTRAL ASIAN FOLDBELT - PALEOZOIC / MONGOLIA - PALEOZOIC / CENTRAL MONGOLIA / DZARTA-KUDUK PALEOVOLCANO;;48;110;48;110;;;OUTCROP;;;SUBAERIAL;VOLCANIC ROCK;TRACHYDACITE;PORPHYRITIC, TRACHYTOID GROUNDMASS;;211000000;211000000;TRIASSIC;;;;;MINERAL / COMPONENT (INCL. GROUNDMASS);ANORTHOCLASE;;;;PRIMARY;;;;;;;;67.05;0;;;18.85;;;;;;;;;;;0.51;;0.01;0.02;;0.04;0.02;;;;;6.25;EMP (EPMA);;;7.36;;;;;;;;;;;;;;;;;;;;;;;;;;;;;;;;;;;;;;;;;;;;;;;;;;;;;;;;;;;;;;;;;;;;;;;;;;;;;;;;;;;;;;;;;;;;;;;;;;;;;;;;;;;;;;;;;;;;;;;;;;;;;;;;;;;;;;;;;;;;;;;;;;;;;;;;;;;;;;;;;;;;;;;;;;;;;;;;;;;;;;;;;;;;;;;;;;;;;;;;;;;;;;;;;;;;;;;;;;;;;