Year;CITATION;SAMPLE NAME;UNIQUE_ID;LOCATION;LOCATION COMMENT;LATITUDE (MIN.);LONGITUDE (MIN.);LATITUDE (MAX.);LONGITUDE (MAX.);ELEVATION (MIN.);ELEVATION (MAX.);SAMPLING TECHNIQUE;DRILLING DEPTH (MIN.);DRILLING DEPTH (MAX.);LAND/SEA (SAMPLING);ROCK TYPE;ROCK NAME;ROCK TEXTURE;SAMPLE COMMENT;AGE (MIN.);AGE (MAX.);GEOLOGICAL AGE;GEOLOGICAL AGE PREFIX;ERUPTION YEAR;ALTERATION;ALTERATION TYPE;TYPE OF MATERIAL;MINERAL / COMPONENT;SPOT (MINERAL);CRYSTAL;RIM / CORE (MINERAL GRAINS);PRIMARY/SECONDARY;INCLUSION TYPE;SPOT (INCLUSION);MINERAL (INCLUSION);RIM / CORE (INCLUSION);HOSTMINERAL (INCLUSION);HEATING;HEATING TEMPERATURE (?C);SIO2(WT%);TIO2(WT%);ZRO2(WT%);B2O3(WT%);AL2O3(WT%);CR2O3(WT%);LA2O3(WT%);CE2O3(WT%);Y2O3(WT%);V2O3(WT%);NB2O3(WT%);TA2O5(WT%);WO3(WT%);FE2O3T(WT%);FE2O3(WT%);FEOT(WT%);FEO(WT%);CAO(WT%);MGO(WT%);MNO(WT%);BAO(WT%);SRO(WT%);NIO(WT%);ZNO(WT%);CS2O(WT%);RB2O(WT%);K2O(WT%);;;;NA2O(WT%);P2O5(WT%);H2O(WT%);;;;H2OP(WT%);H2OM(WT%);CO2(WT%);C(WT%);F(WT%);CL(WT%);SO2(WT%);SO3(WT%);S(WT%);LOI(WT%);AL(WT%);TI(WT%);FE(WT%);MG(WT%);CA(WT%);K(WT%);NA(WT%);LI(PPM);BE(PPM);B(PPM);C(PPM);F(PPM);NA(PPM);MG(PPM);AL(PPM);P(PPM);S(PPM);CL(PPM);AR40(AT/G);AR40(CCMSTP/G);AR40(MOL/G);AR40(PPB);K(PPM);CA(PPM);SC(PPM);;;;TI(PPM);;;;V(PPM);CR(PPM);MN(PPM);FE(PPM);CO(PPM);NI(PPM);CU(PPM);ZN(PPM);GA(PPM);GE(PPM);AS(PPM);SE(PPM);BR(PPM);RB(PPM): altern. values or methods;;;;SR(PPM): altern. values or methods;;;;Y(PPM): altern. values or methods;;;;ZR(PPM): altern. values or methods;;;;NB(PPM): altern. values or methods;;;;MO(PPM): altern. values or methods;;;;AG(PPM);CD(PPM);IN(PPM);SN(PPM);SB(PPM);TE(PPM);CS(PPM);BA(PPM): altern. values or methods;;;;LA(PPM): altern. values or methods;;;;CE(PPM): altern. values or methods;;;;PR(PPM);ND(PPM): altern. values or methods;;;;SM(PPM): altern. values or methods;;;;EU(PPM);GD(PPM);TB(PPM);DY(PPM);HO(PPM);ER(PPM);TM(PPM);YB(PPM);LU(PPM);HF(PPM);TA(PPM);W(PPM);RE(PPM);AU(PPM);AU(PPB);HG(PPM);HG(PPB);TL(PPM);PB(PPM): altern. values or methods;;;;PB206(PPM);BI(PPM);TH(PPM): altern. values or methods;;;;U(PPM);ND143_ND144;ND143_ND144_INI;EPSILON_ND;EPSILON_ND_INI;SM147_ND144;SR87_SR86;SR87_SR86_INI;EPSILON_SR;EPSILON_SR_INI;RB87_SR86;PB206_PB204;PB206_PB204_INI;PB206_PB207;PB206_PB208;PB207_PB204;PB207_PB204_INI;PB207_PB206;PB208_PB204;PB208_PB204_INI;PB208_PB206;HF176_HF177;HF176_HF177_INI;EPSILON_HF_INI;LU176_HF177;YB176_HF177;AR36_AR39;AR36_AR40;AR37_AR39;AR38_AR39;AR39_AR40;AR40_AR36;AR40_AR39;PB206_U238;PB207_U235;PB208_TH232;TH232_PB204;TH232_U238;U235_PB204;U238_PB204;U238_PB206;D7LI(VS LSVEC);D18O(PER MIL);D18O(VS SMOW);D18O(VS VSMOW);D56FE(VS IRMM-014);D57FE(VS IRMM-014);DD(VS SMOW);ALBITE(MOL%);ANORTHITE(MOL%);CA OLIVINE(MOL%);ENSTATITE(MOL%);FAYALITE(MOL%);FORSTERITE(MOL%);FERROSILITE(MOL%);ORTHOCLASE(MOL%);TEPHROITE(MOL%);ULVOSPINEL(MOL%);WOLLASTONITE(MOL%);AGE(KA): altern. values or methods;;;;AGE(MA): altern. values or methods;;;;;;;;AGE_PB207_PB206(MA);AGE_PB207_U235(MA);AGE_PB206_U238(MA): altern. values or methods;;;;;;AGE_PB208_TH232(MA);
2007;[10603] CADOUX A. (2007);samp. 84AO;;APENNINIC-MAGHREBIDES CHAIN / APENNINE / TUSCAN VOLCANIC PROVINCE / MONTE AMIATA;;42.88;11.62;42.88;11.62;;;OUTCROP;;;SUBAERIAL;VOLCANIC ROCK;TRACHYDACITE;;DOMES AND LAVA FLOWS COMPLEX;;;;;;;;WHOLE ROCK;;;;;;;;;;;;;;;;;;;;;;;;;;;;;;;;;;;;;;;;;;;;;;;;;;;;;;;;;;;;;;;;;;;;;;;;;;;;;;;;;;;;;;;;;;;;;;;;;;;;;;;;;;;;;;;;;;;;;;;;;;;;;;;;;;;;;;;;;;;;;;;;;;;;;;;;;;;;;;;;;;;;;;;;;;;;;;;;;;;;;;;;;;;;;;;;;;;18.716;;;;15.677;;;38.994;;;;;;;;;;;;;;;;;;;;;;;;;;;;;;;;;;;;;;;;;;;;;;;;;;;;;;;;;;;;;;
2007;[10603] CADOUX A. (2007);samp. 84AV;;APENNINIC-MAGHREBIDES CHAIN / APENNINE / TUSCAN VOLCANIC PROVINCE / MONTE AMIATA;;42.88;11.62;42.88;11.62;;;OUTCROP;;;SUBAERIAL;VOLCANIC ROCK;TRACHYDACITE;;BASAL TRACHYDACITE COMPLEX;;;;;;;;WHOLE ROCK;;;;;;;;;;;;;;;;;;;;;;;;;;;;;;;;;;;;;;;;;;;;;;;;;;;;;;;;;;;;;;;;;;;;;;;;;;;;;;;;;;;;;;;;;;;;;;;;;;;;;;;;;;;;;;;;;;;;;;;;;;;;;;;;;;;;;;;;;;;;;;;;;;;;;;;;;;;;;;;;;;;;;;;;;;;;;;;;;;;;;;;;;;;;;;;;;;;18.716;;;;15.676;;;38.987;;;;;;;;;;;;;;;;;;;;;;;;;;;;;;;;;;;;;;;;;;;;;;;;;;;;;;;;;;;;;;
2007;[10603] CADOUX A. (2007);samp. 84AW;;APENNINIC-MAGHREBIDES CHAIN / APENNINE / TUSCAN VOLCANIC PROVINCE / MONTE AMIATA;;42.88;11.62;42.88;11.62;;;OUTCROP;;;SUBAERIAL;VOLCANIC ROCK;TRACHYDACITE;;BASAL TRACHYDACITE COMPLEX;;;;;;;;WHOLE ROCK;;;;;;;;;;;;;;;;;;;;;;;;;;;;;;;;;;;;;;;;;;;;;;;;;;;;;;;;;;;;;;;;;;;;;;;;;;;;;;;;;;;;;;;;;;;;;;;;;;;;;;;;;;;;;;;;;;;;;;;;;;;;;;;;;;;;;;;;;;;;;;;;;;;;;;;;;;;;;;;;;;;;;;;;;;;;;;;;;;;;;;;;;;;;;;;;;;;18.712;;;;15.674;;;38.98;;;;;;;;;;;;;;;;;;;;;;;;;;;;;;;;;;;;;;;;;;;;;;;;;;;;;;;;;;;;;;
2007;[10603] CADOUX A. (2007);samp. 84BD;;APENNINIC-MAGHREBIDES CHAIN / APENNINE / TUSCAN VOLCANIC PROVINCE / MONTE AMIATA;;42.88;11.62;42.88;11.62;;;OUTCROP;;;SUBAERIAL;VOLCANIC ROCK;TRACHYDACITE;;BASAL TRACHYDACITE COMPLEX;;;;;;;;WHOLE ROCK;;;;;;;;;;;;;;;;;;;;;;;;;;;;;;;;;;;;;;;;;;;;;;;;;;;;;;;;;;;;;;;;;;;;;;;;;;;;;;;;;;;;;;;;;;;;;;;;;;;;;;;;;;;;;;;;;;;;;;;;;;;;;;;;;;;;;;;;;;;;;;;;;;;;;;;;;;;;;;;;;;;;;;;;;;;;;;;;;;;;;;;;;;;;;;;;;;;18.716;;;;15.677;;;38.991;;;;;;;;;;;;;;;;;;;;;;;;;;;;;;;;;;;;;;;;;;;;;;;;;;;;;;;;;;;;;;
2007;[10603] CADOUX A. (2007);samp. 84BE;;APENNINIC-MAGHREBIDES CHAIN / APENNINE / TUSCAN VOLCANIC PROVINCE / MONTE AMIATA;;42.88;11.62;42.88;11.62;;;OUTCROP;;;SUBAERIAL;VOLCANIC ROCK;TRACHYDACITE;;BASAL TRACHYDACITE COMPLEX;;;;;;;;WHOLE ROCK;;;;;;;;;;;;;;;;;;;;;;;;;;;;;;;;;;;;;;;;;;;;;;;;;;;;;;;;;;;;;;;;;;;;;;;;;;;;;;;;;;;;;;;;;;;;;;;;;;;;;;;;;;;;;;;;;;;;;;;;;;;;;;;;;;;;;;;;;;;;;;;;;;;;;;;;;;;;;;;;;;;;;;;;;;;;;;;;;;;;;;;;;;;;;;;;;;;18.714;;;;15.674;;;38.977;;;;;;;;;;;;;;;;;;;;;;;;;;;;;;;;;;;;;;;;;;;;;;;;;;;;;;;;;;;;;;
2007;[10659] KATZIR Y.(2007)  [GeoReM [3247] ];samp. A196-1;;ARABIAN-NUBIAN SHIELD / ISRAEL / ELAT BLOCK;NETAFIM;29.5;35;29.5;35;;;OUTCROP;;;SUBAERIAL;VOLCANIC ROCK;TRACHYDACITE;;COMPOSITE DIKE;530000000;615000000;PROTEROZOIC;NEO;;;;WHOLE ROCK;;;;;;;;;;;;;50.8;1.83;;;15.3;;;;;;;;;;3.44;;4.35;6.28;4.47;0.17;;;;;;;3.78;NOT;;;3.79;0.38;;;;;;;;;;;;;;5.44;;;;;;;;;;;;;;;;;;;;;;;;;;;;;;;;;;;;;;;;;;;;;;86;XRF;;;460;XRF;;;28;XRF;;;210;XRF;;;13;XRF;;;;;;;;;;;;;;940;XRF;;;;;;;;;;;;;;;;;;;;;;;;;;;;;;;;;;;;;;;;;;;;;;;;;;;;;;;;;;;;;;;;;;;;;;;;;;;;;;;;;;;;;;;;;;;;;;;;;;;;;;;;;;;;;;;;;;;;;;;;;;;;;;;;
2007;[10659] KATZIR Y.(2007)  [GeoReM [3247] ];samp. A197-7;;ARABIAN-NUBIAN SHIELD / ISRAEL / ELAT BLOCK;NETAFIM;29.5;35;29.5;35;;;OUTCROP;;;SUBAERIAL;VOLCANIC ROCK;TRACHYDACITE;;COMPOSITE DIKE;530000000;615000000;PROTEROZOIC;NEO;;;;WHOLE ROCK;;;;;;;;;;;;;65.5;0.67;;;13.3;;;;;;;;;;1.65;;2.12;3.04;1.1;0.08;;;;;;;5.97;NOT;;;2.51;0.12;;;;;;;;;;;;;;3.41;;;;;;;;;;;;;;;;;;;;;;;;;;;;;;;;;;;;;;;;;;;;;;140;XRF;;;190;XRF;;;35;XRF;;;370;XRF;;;21;XRF;;;;;;;;;;;;;;690;XRF;;;;;;;;;;;;;;;;;;;;;;;;;;;;;;;;;;;;;;;;;;;;;;;;;;;;;;;;;;;;;;;;;;;;;;;;;;;;;;;;;;;;;;;;;;;;;;;;;;;;;;;;;;;;;;;;;;;;;;;;;;;;;;;;
2007;[10659] KATZIR Y.(2007)  [GeoReM [3247] ];samp. N-6;;ARABIAN-NUBIAN SHIELD / ISRAEL / ELAT BLOCK;NETAFIM;29.5;35;29.5;35;;;OUTCROP;;;SUBAERIAL;VOLCANIC ROCK;TRACHYDACITE;;COMPOSITE DIKE;530000000;615000000;PROTEROZOIC;NEO;;;;WHOLE ROCK;;;;;;;;;;;;;67.2;0.7;;;13;;;;;;;;;;2.82;;1.41;1.65;1.69;0.03;;;;;;;5.66;NOT;;;3.21;0.15;;;;;;;;;;;;;;2.24;;;;;;;;;;;;;;;;;;;;;;;;;;;;;;;;;;;;;;;;;;;;;;140;XRF;;;170;XRF;;;34;XRF;;;380;XRF;;;32;XRF;;;;;;;;;;;;;;370;XRF;;;;;;;;;;;;;;;;;;;;;;;;;;;;;;;;;;;;;;;;;;;;;;;;;;;;;;;;;;;;;;;;;;;;;;;;;;;;;;;;;;;;;;;;;;;;;;;;;;;;;;;;;;;;;;;;;;;;;;;;;;;;;;;;
2007;[10659] KATZIR Y.(2007)  [GeoReM [3247] ];samp. A197-4;;ARABIAN-NUBIAN SHIELD / ISRAEL / ELAT BLOCK;NETAFIM;29.5;35;29.5;35;;;OUTCROP;;;SUBAERIAL;VOLCANIC ROCK;TRACHYDACITE;;COMPOSITE DIKE;530000000;615000000;PROTEROZOIC;NEO;;;;WHOLE ROCK;;;;;;;;;;;;;66.4;0.63;;;13.2;;;;;;;;;;1.67;;2.12;2.73;1.55;0.08;;;;;;;5.65;NOT;;;2.96;0.11;;;;;;;;;;;;;;3.17;;;;;;;;;;;;;;;;;;;;;;;;;;;;;;;;;;;;;;;;;;;;;;135;XRF;;;230;XRF;;;34;XRF;;;380;XRF;;;22;XRF;;;;;;;;;;;;;;500;XRF;;;;;;;;;;;;;;;;;;;;;;;;;;;;;;;;;;;;;;;;;;;;;;;;;;;;;;;;;;;;;;;;;;;;;;;;;;;;;;;;;;;;;;;;;;;;;;;;;;;;;;;;;;;;;;;;;;;;;;;;;;;;;;;;
2007;[10659] KATZIR Y.(2007)  [GeoReM [3247] ];samp. A197-7;;ARABIAN-NUBIAN SHIELD / ISRAEL / ELAT BLOCK;NETAFIM;29.5;35;29.5;35;;;OUTCROP;;;SUBAERIAL;VOLCANIC ROCK;TRACHYDACITE;;COMPOSITE DIKE;530000000;615000000;PROTEROZOIC;NEO;;;;MINERAL / COMPONENT (INCL. GROUNDMASS);(AL)KALIFELDSPAR;;PHENOCRYST;CORE;PRIMARY;;;;;;;;65.151;;;;18.821;;;;;;;;;;;0.185;;0.262;;;;;;;;;13.578;EMP (EPMA);;;2.344;;;;;;;;;;;;;;;;;;;;;;;;;;;;;;;;;;;;;;;;;;;;;;;;;;;;;;;;;;;;;;;;;;;;;;;;;;;;;;;;;;;;;;;;;;;;;;;;;;;;;;;;;;;;;;;;;;;;;;;;;;;;;;;;;;;;;;;;;;;;;;;;;;;;;;;;;;;;;;;;;;;;;;;;;;;;;;;;;;;;;;;;;;;;;20.533070088845;1.28331688055281;;;;;;78.1836130306022;;;;;;;;;;;;;;;;;;;;;;;;;
2007;[10659] KATZIR Y.(2007)  [GeoReM [3247] ];samp. A197-7;;ARABIAN-NUBIAN SHIELD / ISRAEL / ELAT BLOCK;NETAFIM;29.5;35;29.5;35;;;OUTCROP;;;SUBAERIAL;VOLCANIC ROCK;TRACHYDACITE;;COMPOSITE DIKE;530000000;615000000;PROTEROZOIC;NEO;;;;MINERAL / COMPONENT (INCL. GROUNDMASS);(AL)KALIFELDSPAR;;PHENOCRYST;RIM;PRIMARY;;;;;;;;65.438;;;;20.368;;;;;;;;;;;0.735;;0.595;;;;;;;;;3.613;EMP (EPMA);;;8.53;;;;;;;;;;;;;;;;;;;;;;;;;;;;;;;;;;;;;;;;;;;;;;;;;;;;;;;;;;;;;;;;;;;;;;;;;;;;;;;;;;;;;;;;;;;;;;;;;;;;;;;;;;;;;;;;;;;;;;;;;;;;;;;;;;;;;;;;;;;;;;;;;;;;;;;;;;;;;;;;;;;;;;;;;;;;;;;;;;;;;;;;;;;;;75.9753593429158;2.87474332648871;;;;;;21.1498973305955;;;;;;;;;;;;;;;;;;;;;;;;;
2007;[10659] KATZIR Y.(2007)  [GeoReM [3247] ];samp. A197-7;;ARABIAN-NUBIAN SHIELD / ISRAEL / ELAT BLOCK;NETAFIM;29.5;35;29.5;35;;;OUTCROP;;;SUBAERIAL;VOLCANIC ROCK;TRACHYDACITE;;COMPOSITE DIKE;530000000;615000000;PROTEROZOIC;NEO;;;;MINERAL / COMPONENT (INCL. GROUNDMASS);(AL)KALIFELDSPAR;;GROUNDMASS;;PRIMARY;;;;;;;;65.325;;;;17.767;;;;;;;;;;;0.266;;0.129;;;;;;;;;14.478;EMP (EPMA);;;1.442;;;;;;;;;;;;;;;;;;;;;;;;;;;;;;;;;;;;;;;;;;;;;;;;;;;;;;;;;;;;;;;;;;;;;;;;;;;;;;;;;;;;;;;;;;;;;;;;;;;;;;;;;;;;;;;;;;;;;;;;;;;;;;;;;;;;;;;;;;;;;;;;;;;;;;;;;;;;;;;;;;;;;;;;;;;;;;;;;;;;;;;;;;;;;13.0434782608696;0.606673407482305;;;;;;86.3498483316481;;;;;;;;;;;;;;;;;;;;;;;;;
2007;[10659] KATZIR Y.(2007)  [GeoReM [3247] ];samp. A197-4;;ARABIAN-NUBIAN SHIELD / ISRAEL / ELAT BLOCK;NETAFIM;29.5;35;29.5;35;;;OUTCROP;;;SUBAERIAL;VOLCANIC ROCK;TRACHYDACITE;;COMPOSITE DIKE;530000000;615000000;PROTEROZOIC;NEO;;;;MINERAL / COMPONENT (INCL. GROUNDMASS);(AL)KALIFELDSPAR;;PHENOCRYST;CORE;PRIMARY;;;;;;;;66.93;;;;18.22;;;;;;;;;;;0.331;;0.1935;;;;;;;;;8.334;EMP (EPMA);;;5.766;;;;;;;;;;;;;;;;;;;;;;;;;;;;;;;;;;;;;;;;;;;;;;;;;;;;;;;;;;;;;;;;;;;;;;;;;;;;;;;;;;;;;;;;;;;;;;;;;;;;;;;;;;;;;;;;;;;;;;;;;;;;;;;;;;;;;;;;;;;;;;;;;;;;;;;;;;;;;;;;;;;;;;;;;;;;;;;;;;;;;;;;;;;;;50.8015971014964;0.956605712521731;;;;;;48.2417971859819;;;;;;;;;;;;;;;;;;;;;;;;;
2007;[10659] KATZIR Y.(2007)  [GeoReM [3247] ];samp. A197-4;;ARABIAN-NUBIAN SHIELD / ISRAEL / ELAT BLOCK;NETAFIM;29.5;35;29.5;35;;;OUTCROP;;;SUBAERIAL;VOLCANIC ROCK;TRACHYDACITE;;COMPOSITE DIKE;530000000;615000000;PROTEROZOIC;NEO;;;;MINERAL / COMPONENT (INCL. GROUNDMASS);(AL)KALIFELDSPAR;;PHENOCRYST;RIM;PRIMARY;;;;;;;;67.87;;;;19.3285;;;;;;;;;;;0.467;;0.487;;;;;;;;;3.785;EMP (EPMA);;;8.3555;;;;;;;;;;;;;;;;;;;;;;;;;;;;;;;;;;;;;;;;;;;;;;;;;;;;;;;;;;;;;;;;;;;;;;;;;;;;;;;;;;;;;;;;;;;;;;;;;;;;;;;;;;;;;;;;;;;;;;;;;;;;;;;;;;;;;;;;;;;;;;;;;;;;;;;;;;;;;;;;;;;;;;;;;;;;;;;;;;;;;;;;;;;;;75.2961915144444;2.48342846876501;;;;;;22.2203800167906;;;;;;;;;;;;;;;;;;;;;;;;;
2007;[10659] KATZIR Y.(2007)  [GeoReM [3247] ];samp. A197-4;;ARABIAN-NUBIAN SHIELD / ISRAEL / ELAT BLOCK;NETAFIM;29.5;35;29.5;35;;;OUTCROP;;;SUBAERIAL;VOLCANIC ROCK;TRACHYDACITE;;COMPOSITE DIKE;530000000;615000000;PROTEROZOIC;NEO;;;;MINERAL / COMPONENT (INCL. GROUNDMASS);(AL)KALIFELDSPAR;;GROUNDMASS;;PRIMARY;;;;;;;;64.84;;;;18.3485;;;;;;;;;;;0.2385;;0.156;;;;;;;;;14.38575;EMP (EPMA);;;1.54275;;;;;;;;;;;;;;;;;;;;;;;;;;;;;;;;;;;;;;;;;;;;;;;;;;;;;;;;;;;;;;;;;;;;;;;;;;;;;;;;;;;;;;;;;;;;;;;;;;;;;;;;;;;;;;;;;;;;;;;;;;;;;;;;;;;;;;;;;;;;;;;;;;;;;;;;;;;;;;;;;;;;;;;;;;;;;;;;;;;;;;;;;;;;;13.7875984419522;0.761747169857206;;;;;;85.4506543881906;;;;;;;;;;;;;;;;;;;;;;;;;
1998;[10667] ALICI P. (1998);samp. I-93-43;;ANATOLIA-IRAN BELT / TURKEY / WESTERN ANATOLIAN VOLCANIC BELT;GÖLCUK AREA;37.7333;30.5;37.7333;30.5;;;OUTCROP;;;SUBAERIAL;VOLCANIC ROCK;TRACHYDACITE;;ANCIENT LAVAS/DOME;;;PLIOCENE;;;;;WHOLE ROCK;;;;;;;;;;;;;67.98;0.62;;;16.38;;;;;;;;;1.86;;;;1.59;0.68;0.015;;;;;;;5.04;XRF;;;4.42;0.08;;;;;;;;;;;;;;0.38;;;;;;;;;;;;;;;;;;;;;;;;;;;;;;;;;65;14.4;;;14.9;14.1;;;27.9;;;;;177;XRF;;;1933;XRF;;;27.2;XRF;;;401;XRF;;;40;XRF;;;;;;;;;;;;;;1617;XRF;;;;;;;;;;;;;;;;;;;;;;;;;;;;;;;;;;;;;;;;;;;;;;;;;0.512712;;;;;0.704142;;;;;;;;;;;;;;;;;;;;;;;;;;;;;;;;;;;;;;;;;;;;;;;;;;;;;;;;;;;;;;;;;;;;;;;;;;
1998;[10699] KESKIN M. (1998);samp. MK46;;ANATOLIA-IRAN BELT / TURKEY / EASTERN ANATOLIAN VOLCANIC BELT / MOUNT DUMLU / DUMLU FORMATION;ERZURUM-KARS PLATEAU;40.0608;41.3644;40.0608;41.3644;;;OUTCROP;;;SUBAERIAL;VOLCANIC ROCK;TRACHYDACITE;;;;;NEOGENE;;;;;WHOLE ROCK;;;;;;;;;;;;;68.5;0.4;;;16.14;;;;;;;;;2.45;;;;1.87;0.64;0.09;;;;;;;3.48;XRF;;;5.23;0.17;;;;;;;;;;;;;;1.81;;;;;;;;;;;;;;;;;;;;;;;;;34;XRF;;;;;;;4;88;;;1;1;15;55;18;;;;;94;XRF;;;275;XRF;;;25;XRF;;;385;XRF;;;18;XRF;;;;;;;;;;;;;;680;XRF;;;42;XRF;;;79;XRF;;;;26;XRF;;;;;;;;;;;;;;;;;;;;;;;;;16;XRF;;;;;14;XRF;;;;;;;;;;;;;;;;;;;;;;;;;;;;;;;;;;;;;;;;;;;;;;;;;;;;;;;;;;;;;;;;;;;;;;;;;;;;;;;;;;;
1998;[10699] KESKIN M. (1998);samp. MK240;;ANATOLIA-IRAN BELT / TURKEY / EASTERN ANATOLIAN VOLCANIC BELT / MOUNT DUMLU / GÜNGÖRMEZ FORMATION;ERZURUM-KARS PLATEAU;40.0608;41.3644;40.0608;41.3644;;;OUTCROP;;;SUBAERIAL;VOLCANIC ROCK;TRACHYDACITE;;;;;NEOGENE;;;;;WHOLE ROCK;;;;;;;;;;;;;62.9;0.97;;;16.78;;;;;;;;;5.69;;;;4.21;1.34;0.08;;;;;;;2.69;XRF;;;4.92;0.47;;;;;;;;;;;;;;0.81;;;;;;;;;;;;;;;;;;;;;;;;;10;XRF;;;;;;;81;;;;10;2;;83;21;;;;;71;XRF;;;426;XRF;;;29;XRF;;;245;XRF;;;17;XRF;;;;;;;;;;;;;;548;XRF;;;48;XRF;;;65;XRF;;;;29;XRF;;;;;;;;;;;;;;;;;;;;;;;;;16;XRF;;;;;9;XRF;;;;;;;;;;;;;;;;;;;;;;;;;;;;;;;;;;;;;;;;;;;;;;;;;;;;;;;;;;;;;;;;;;;;;;;;;;;;;;;;;;;
1998;[10699] KESKIN M. (1998);samp. MK241;;ANATOLIA-IRAN BELT / TURKEY / EASTERN ANATOLIAN VOLCANIC BELT / KARGAPAZARI / GÜNGÖRMEZ FORMATION;ERZURUM-KARS PLATEAU;40.1167;41.5833;40.1167;41.5833;;;OUTCROP;;;SUBAERIAL;VOLCANIC ROCK;TRACHYDACITE;;;;;NEOGENE;;;;;WHOLE ROCK;;;;;;;;;;;;;62.7;0.96;;;16.66;;;;;;;;;5.49;;;;4.19;1.51;0.08;;;;;;;2.68;XRF;;;4.86;0.47;;;;;;;;;;;;;;0.96;;;;;;;;;;;;;;;;;;;;;;;;;12;XRF;;;;;;;77;2;;;8;1;1;76;19;;;;;68;XRF;;;424;XRF;;;26;XRF;;;245;XRF;;;17;XRF;;;;;;;;;;;;;;530;XRF;;;42;XRF;;;70;XRF;;;;26;XRF;;;;;;;;;;;;;;;;;;;;;;;;;15;XRF;;;;;8;XRF;;;;;;;;;;;;;;;;;;;;;;;;;;;;;;;;;;;;;;;;;;;;;;;;;;;;;;;;;;;;;;;;;;;;;;;;;;;;;;;;;;;
1998;[10699] KESKIN M. (1998);samp. MK16;;ANATOLIA-IRAN BELT / TURKEY / EASTERN ANATOLIAN VOLCANIC BELT / KARGAPAZARI / GÜNGÖRMEZ FORMATION;ERZURUM-KARS PLATEAU;40.1167;41.5833;40.1167;41.5833;;;OUTCROP;;;SUBAERIAL;VOLCANIC ROCK;TRACHYDACITE;;;;;NEOGENE;;;;;WHOLE ROCK;;;;;;;;;;;;;67.7;0.52;;;15.32;;;;;;;;;3.08;;;;2.99;1.69;0.05;;;;;;;3.9;XRF;;;3.83;0.14;;;;;;;;;;;;;;1.94;;;;;;;;;;;;;;;;;;;;;;;;;5;XRF;;;;;;;52;44;;;7;33;9;43;18;;;;;104;XRF;;;277;XRF;;;17;XRF;;;198;XRF;;;15;XRF;;;;;;;;;;;;;;608;XRF;;;29;XRF;;;46;XRF;;;;20;XRF;;;;;;;;;;;;;;;;;;;;;;;;;15;XRF;;;;;11;XRF;;;;;;;;;;;;;;;;;;;;;;;;;;;;;;;;;;;;;;;;;;;;;;;;;;;;;;;;;;;;;;;;;;;;;;;;;;;;;;;;;;;
1998;[10699] KESKIN M. (1998);samp. MK17B;;ANATOLIA-IRAN BELT / TURKEY / EASTERN ANATOLIAN VOLCANIC BELT / KARGAPAZARI / GÜNGÖRMEZ FORMATION;ERZURUM-KARS PLATEAU;40.1167;41.5833;40.1167;41.5833;;;OUTCROP;;;SUBAERIAL;VOLCANIC ROCK;TRACHYDACITE;;;;;NEOGENE;;;;;WHOLE ROCK;;;;;;;;;;;;;68;0.52;;;15.32;;;;;;;;;3.08;;;;2.86;1.66;0.06;;;;;;;3.84;XRF;;;3.95;0.14;;;;;;;;;;;;;;1.89;;;;;;;;;;;;;;;;;;;;;;;;;5;XRF;;;;;;;43;42;;;87;33;30;43;16;;;;;108;XRF;;;265;XRF;;;15;XRF;;;201;XRF;;;15;XRF;;;;;;;;;;;;;;588;XRF;;;28;XRF;;;50;XRF;;;;20;XRF;;;;;;;;;;;;;;;;;;;;;;;;;13;XRF;;;;;13;XRF;;;;;;;;;;;;;;;;;;;;;;;;;;;;;;;;;;;;;;;;;;;;;;;;;;;;;;;;;;;;;;;;;;;;;;;;;;;;;;;;;;;
1998;[10699] KESKIN M. (1998);samp. MK86;;ANATOLIA-IRAN BELT / TURKEY / EASTERN ANATOLIAN VOLCANIC BELT / KARGAPAZARI / GÜNGÖRMEZ FORMATION;ERZURUM-KARS PLATEAU;40.1167;41.5833;40.1167;41.5833;;;OUTCROP;;;SUBAERIAL;VOLCANIC ROCK;TRACHYDACITE;;;;;NEOGENE;;;;;WHOLE ROCK;;;;;;;;;;;;;64.5;0.75;;;17.08;;;;;;;;;4.96;;;;2.91;0.38;0.06;;;;;;;2.92;XRF;;;5.44;0.31;;;;;;;;;;;;;;2.26;;;;;;;;;;;;;;;;;;;;;;;;;7;XRF;;;;;;;28;1;;;4;3;3;69;17;;;;;79;XRF;;;284;XRF;;;31;XRF;;;350;XRF;;;19;XRF;;;;;;;;;;;;;;592;XRF;;;27;XRF;;;48;XRF;;;;25;XRF;;;;;;;;;;;;;;;;;;;;;;;;;13;XRF;;;;;8;XRF;;;;;;;;;;;;;;;;;;;;;;;;;;;;;;;;;;;;;;;;;;;;;;;;;;;;;;;;;;;;;;;;;;;;;;;;;;;;;;;;;;;
1998;[10699] KESKIN M. (1998);samp. MK87;;ANATOLIA-IRAN BELT / TURKEY / EASTERN ANATOLIAN VOLCANIC BELT / KARGAPAZARI / GÜNGÖRMEZ FORMATION;ERZURUM-KARS PLATEAU;40.1167;41.5833;40.1167;41.5833;;;OUTCROP;;;SUBAERIAL;VOLCANIC ROCK;TRACHYDACITE;;;;;NEOGENE;;;;;WHOLE ROCK;;;;;;;;;;;;;67.9;0.35;;;16.66;;;;;;;;;3;;;;1.84;0.4;0.09;;;;;;;3.16;XRF;;;5.5;0.13;;;;;;;;;;;;;;1.86;;;;;;;;;;;;;;;;;;;;;;;;;4;XRF;;;;;;;1;2;;;2;4;;56;19;;;;;68;XRF;;;257;XRF;;;20;XRF;;;447;XRF;;;16;XRF;;;;;;;;;;;;;;670;XRF;;;40;XRF;;;72;XRF;;;;26;XRF;;;;;;;;;;;;;;;;;;;;;;;;;18;XRF;;;;;13;XRF;;;;;;;;;;;;;;;;;;;;;;;;;;;;;;;;;;;;;;;;;;;;;;;;;;;;;;;;;;;;;;;;;;;;;;;;;;;;;;;;;;;
1998;[10699] KESKIN M. (1998);samp. MK88;;ANATOLIA-IRAN BELT / TURKEY / EASTERN ANATOLIAN VOLCANIC BELT / KARGAPAZARI / GÜNGÖRMEZ FORMATION;ERZURUM-KARS PLATEAU;40.1167;41.5833;40.1167;41.5833;;;OUTCROP;;;SUBAERIAL;VOLCANIC ROCK;TRACHYDACITE;;;;;NEOGENE;;;;;WHOLE ROCK;;;;;;;;;;;;;66.7;0.54;;;16.96;;;;;;;;;3.65;;;;2.66;0.89;0.09;;;;;;;3.54;XRF;;;5.04;0.23;;;;;;;;;;;;;;1.67;;;;;;;;;;;;;;;;;;;;;;;;;6;XRF;;;;;;;5;1;;;5;6;;58;18;;;;;85;XRF;;;323;XRF;;;22;XRF;;;363;XRF;;;18;XRF;;;;;;;;;;;;;;606;XRF;;;37;XRF;;;71;XRF;;;;25;XRF;;;;;;;;;;;;;;;;;;;;;;;;;15;XRF;;;;;9;XRF;;;;;;;;;;;;;;;;;;;;;;;;;;;;;;;;;;;;;;;;;;;;;;;;;;;;;;;;;;;;;;;;;;;;;;;;;;;;;;;;;;;
1998;[10699] KESKIN M. (1998);samp. MK279;;ANATOLIA-IRAN BELT / TURKEY / EASTERN ANATOLIAN VOLCANIC BELT / KARGAPAZARI / BLACK IGNIMBRITE FORMATION;ERZURUM-KARS PLATEAU;40.1167;41.5833;40.1167;41.5833;;;OUTCROP;;;SUBAERIAL;VOLCANIC ROCK;TRACHYDACITE;;;;;NEOGENE;;;;;WHOLE ROCK;;;;;;;;;;;;;67.6;0.58;;;16.1;;;;;;;;;3.33;;;;2.01;0.51;0.08;;;;;;;3.65;XRF;;;5.43;0.13;;;;;;;;;;;;;;0.73;;;;;;;;;;;;;;;;;;;;;;;;;7;XRF;;;;;;;18;5;;;5;6;3;62;20;;;;;98;XRF;;;204;XRF;;;29;XRF;;;323;XRF;;;19;XRF;;;;;;;;;;;;;;639;XRF;;;34;XRF;;;59;XRF;;;;28;XRF;;;;;;;;;;;;;;;;;;;;;;;;;14;XRF;;;;;11;XRF;;;;;;;;;;;;;;;;;;;;;;;;;;;;;;;;;;;;;;;;;;;;;;;;;;;;;;;;;;;;;;;;;;;;;;;;;;;;;;;;;;;
1998;[10699] KESKIN M. (1998);samp. MK78;;ANATOLIA-IRAN BELT / TURKEY / EASTERN ANATOLIAN VOLCANIC BELT / BLACK IGNIMBRITE FORMATION;PASINLER AREA, ERZURUM-KARS PLATEAU;39.9822;41.6831;39.9822;41.6831;;;OUTCROP;;;SUBAERIAL;VOLCANIC ROCK;TRACHYDACITE;;;;;NEOGENE;;;;;WHOLE ROCK;;;;;;;;;;;;;63.1;1.08;;;16.26;;;;;;;;;4.93;;;;3.2;1.33;0.1;;;;;;;4.02;XRF;;;4.69;0.32;;;;;;;;;;;;;;2.57;;;;;;;;;;;;;;;;;;;;;;;;;11;XRF;;;;;;;58;1;;;4;8;3;71;18;;;;;92;XRF;;;279;XRF;;;39;XRF;;;580;XRF;;;23;XRF;;;;;;;;;;;;;;784;XRF;;;50;XRF;;;91;XRF;;;;44;XRF;;;;;;;;;;;;;;;;;;;;;;;;;23;XRF;;;;;16;XRF;;;;;;;;;;;;;;;;;;;;;;;;;;;;;;;;;;;;;;;;;;;;;;;;;;;;;;;;;;;;;;;;;;;;;;;;;;;;;;;;;;;
1998;[10699] KESKIN M. (1998);samp. MK79;;ANATOLIA-IRAN BELT / TURKEY / EASTERN ANATOLIAN VOLCANIC BELT / BLACK IGNIMBRITE FORMATION;PASINLER AREA, ERZURUM-KARS PLATEAU;39.9822;41.6831;39.9822;41.6831;;;OUTCROP;;;SUBAERIAL;VOLCANIC ROCK;TRACHYDACITE;;;;;NEOGENE;;;;;WHOLE ROCK;;;;;;;;;;;;;68.1;0.59;;;16.6;;;;;;;;;2.82;;;;1.3;0.27;0.07;;;;;;;4.37;XRF;;;4.98;0.1;;;;;;;;;;;;;;1.41;;;;;;;;;;;;;;;;;;;;;;;;;5;XRF;;;;;;;21;3;;;1;1;;49;19;;;;;117;XRF;;;137;XRF;;;32;XRF;;;485;XRF;;;26;XRF;;;;;;;;;;;;;;859;XRF;;;48;XRF;;;80;XRF;;;;37;XRF;;;;;;;;;;;;;;;;;;;;;;;;;25;XRF;;;;;22;XRF;;;;;;;;;;;;;;;;;;;;;;;;;;;;;;;;;;;;;;;;;;;;;;;;;;;;;;;;;;;;;;;;;;;;;;;;;;;;;;;;;;;