Year;CITATION;SAMPLE NAME;UNIQUE_ID;LOCATION;LOCATION COMMENT;LATITUDE (MIN.);LONGITUDE (MIN.);LATITUDE (MAX.);LONGITUDE (MAX.);ELEVATION (MIN.);ELEVATION (MAX.);SAMPLING TECHNIQUE;DRILLING DEPTH (MIN.);DRILLING DEPTH (MAX.);LAND/SEA (SAMPLING);ROCK TYPE;ROCK NAME;ROCK TEXTURE;SAMPLE COMMENT;AGE (MIN.);AGE (MAX.);GEOLOGICAL AGE;GEOLOGICAL AGE PREFIX;ERUPTION YEAR;ALTERATION;ALTERATION TYPE;TYPE OF MATERIAL;MINERAL / COMPONENT;SPOT (MINERAL);CRYSTAL;RIM / CORE (MINERAL GRAINS);PRIMARY/SECONDARY;INCLUSION TYPE;SPOT (INCLUSION);MINERAL (INCLUSION);RIM / CORE (INCLUSION);HOSTMINERAL (INCLUSION);HEATING;HEATING TEMPERATURE (?C);SIO2(WT%);TIO2(WT%);ZRO2(WT%);B2O3(WT%);AL2O3(WT%);CR2O3(WT%);LA2O3(WT%);CE2O3(WT%);Y2O3(WT%);V2O3(WT%);NB2O3(WT%);TA2O5(WT%);WO3(WT%);FE2O3T(WT%);FE2O3(WT%);FEOT(WT%);FEO(WT%);CAO(WT%);MGO(WT%);MNO(WT%);BAO(WT%);SRO(WT%);NIO(WT%);ZNO(WT%);CS2O(WT%);RB2O(WT%);K2O(WT%);;;;NA2O(WT%);P2O5(WT%);H2O(WT%);;;;H2OP(WT%);H2OM(WT%);CO2(WT%);C(WT%);F(WT%);CL(WT%);SO2(WT%);SO3(WT%);S(WT%);LOI(WT%);AL(WT%);TI(WT%);FE(WT%);MG(WT%);CA(WT%);K(WT%);NA(WT%);LI(PPM);BE(PPM);B(PPM);C(PPM);F(PPM);NA(PPM);MG(PPM);AL(PPM);P(PPM);S(PPM);CL(PPM);AR40(AT/G);AR40(CCMSTP/G);AR40(MOL/G);AR40(PPB);K(PPM);CA(PPM);SC(PPM);;;;TI(PPM);;;;V(PPM);CR(PPM);MN(PPM);FE(PPM);CO(PPM);NI(PPM);CU(PPM);ZN(PPM);GA(PPM);GE(PPM);AS(PPM);SE(PPM);BR(PPM);RB(PPM): altern. values or methods;;;;SR(PPM): altern. values or methods;;;;Y(PPM): altern. values or methods;;;;ZR(PPM): altern. values or methods;;;;NB(PPM): altern. values or methods;;;;MO(PPM): altern. values or methods;;;;AG(PPM);CD(PPM);IN(PPM);SN(PPM);SB(PPM);TE(PPM);CS(PPM);BA(PPM): altern. values or methods;;;;LA(PPM): altern. values or methods;;;;CE(PPM): altern. values or methods;;;;PR(PPM);ND(PPM): altern. values or methods;;;;SM(PPM): altern. values or methods;;;;EU(PPM);GD(PPM);TB(PPM);DY(PPM);HO(PPM);ER(PPM);TM(PPM);YB(PPM);LU(PPM);HF(PPM);TA(PPM);W(PPM);RE(PPM);AU(PPM);AU(PPB);HG(PPM);HG(PPB);TL(PPM);PB(PPM): altern. values or methods;;;;PB206(PPM);BI(PPM);TH(PPM): altern. values or methods;;;;U(PPM);ND143_ND144;ND143_ND144_INI;EPSILON_ND;EPSILON_ND_INI;SM147_ND144;SR87_SR86;SR87_SR86_INI;EPSILON_SR;EPSILON_SR_INI;RB87_SR86;PB206_PB204;PB206_PB204_INI;PB206_PB207;PB206_PB208;PB207_PB204;PB207_PB204_INI;PB207_PB206;PB208_PB204;PB208_PB204_INI;PB208_PB206;HF176_HF177;HF176_HF177_INI;EPSILON_HF_INI;LU176_HF177;YB176_HF177;AR36_AR39;AR36_AR40;AR37_AR39;AR38_AR39;AR39_AR40;AR40_AR36;AR40_AR39;PB206_U238;PB207_U235;PB208_TH232;TH232_PB204;TH232_U238;U235_PB204;U238_PB204;U238_PB206;D7LI(VS LSVEC);D18O(PER MIL);D18O(VS SMOW);D18O(VS VSMOW);D56FE(VS IRMM-014);D57FE(VS IRMM-014);DD(VS SMOW);ALBITE(MOL%);ANORTHITE(MOL%);CA OLIVINE(MOL%);ENSTATITE(MOL%);FAYALITE(MOL%);FORSTERITE(MOL%);FERROSILITE(MOL%);ORTHOCLASE(MOL%);TEPHROITE(MOL%);ULVOSPINEL(MOL%);WOLLASTONITE(MOL%);AGE(KA): altern. values or methods;;;;AGE(MA): altern. values or methods;;;;;;;;AGE_PB207_PB206(MA);AGE_PB207_U235(MA);AGE_PB206_U238(MA): altern. values or methods;;;;;;AGE_PB208_TH232(MA);
2013;[17640] XU WEN-LIANG (2013);samp. YB4-9;;CENTRAL ASIAN FOLDBELT - MESOZOIC / CHINA - MESOZOIC / JILIN PROVINCE / TUNTIANYING FORMATION;BADAOGOU, LONGJING CITY;43.005;129.1886;43.005;129.1886;;;OUTCROP;;;SUBAERIAL;VOLCANIC ROCK;TRACHYDACITE;;;;;MESOZOIC;;;;;MINERAL / COMPONENT (INCL. GROUNDMASS);ZIRCON;;;;PRIMARY;;;;;;;;;;;;;;;;;;;;;;;;;;;;;;;;;;;;;;;;;;;;;;;;;;;;;;;;;;;;;;;;;;;;;;;;;;;;;;;;;;;;;;;;;;;;;;;;;;;;;;;;;;;;;;;;;;;;;;;;;;;;;;;;;;;;;;;;;;;;;;;;;;;;;;;;;;;;;;;;;;;;;;;;;;;;;;;163;ICPMS_LA;;;217;;;;;;;;;;;;;;;;;0.06131;;;;;;;;;;;;;;;;0.0138;0.11669;0.00425;;;;;;;;;;;;;;;;;;;;;;;;;;;;;;;;;;;;650;112;88;PB206_U238 AGE;;;;;;
2013;[17640] XU WEN-LIANG (2013);samp. YB4-9;;CENTRAL ASIAN FOLDBELT - MESOZOIC / CHINA - MESOZOIC / JILIN PROVINCE / TUNTIANYING FORMATION;BADAOGOU, LONGJING CITY;43.005;129.1886;43.005;129.1886;;;OUTCROP;;;SUBAERIAL;VOLCANIC ROCK;TRACHYDACITE;;;;;MESOZOIC;;;;;MINERAL / COMPONENT (INCL. GROUNDMASS);ZIRCON;;;;PRIMARY;;;;;;;;;;;;;;;;;;;;;;;;;;;;;;;;;;;;;;;;;;;;;;;;;;;;;;;;;;;;;;;;;;;;;;;;;;;;;;;;;;;;;;;;;;;;;;;;;;;;;;;;;;;;;;;;;;;;;;;;;;;;;;;;;;;;;;;;;;;;;;;;;;;;;;;;;;;;;;;;;;;;;;;;;;;;;;;140;ICPMS_LA;;;179;;;;;;;;;;;;;;;;;0.05099;;;;;;;;;;;;;;;;0.01443;0.10139;0.00657;;;;;;;;;;;;;;;;;;;;;;;;;;;;;;;;;;;;240;98;92;PB206_U238 AGE;;;;;;
2013;[17640] XU WEN-LIANG (2013);samp. YB4-9;;CENTRAL ASIAN FOLDBELT - MESOZOIC / CHINA - MESOZOIC / JILIN PROVINCE / TUNTIANYING FORMATION;BADAOGOU, LONGJING CITY;43.005;129.1886;43.005;129.1886;;;OUTCROP;;;SUBAERIAL;VOLCANIC ROCK;TRACHYDACITE;;;;;MESOZOIC;;;;;MINERAL / COMPONENT (INCL. GROUNDMASS);ZIRCON;;;;PRIMARY;;;;;;;;;;;;;;;;;;;;;;;;;;;;;;;;;;;;;;;;;;;;;;;;;;;;;;;;;;;;;;;;;;;;;;;;;;;;;;;;;;;;;;;;;;;;;;;;;;;;;;;;;;;;;;;;;;;;;;;;;;;;;;;;;;;;;;;;;;;;;;;;;;;;;;;;;;;;;;;;;;;;;;;;;;;;;;;108;ICPMS_LA;;;132;;;;;;;;;;;;;;;;;0.05003;;;;;;;;;;;;;;;;0.01424;0.09819;0.00445;;;;;;;;;;;;;;;;;;;;;;;;;;;;;;;;;;;;196;95;91;PB206_U238 AGE;;;;;;
2013;[17640] XU WEN-LIANG (2013);samp. YB4-9;;CENTRAL ASIAN FOLDBELT - MESOZOIC / CHINA - MESOZOIC / JILIN PROVINCE / TUNTIANYING FORMATION;BADAOGOU, LONGJING CITY;43.005;129.1886;43.005;129.1886;;;OUTCROP;;;SUBAERIAL;VOLCANIC ROCK;TRACHYDACITE;;;;;MESOZOIC;;;;;MINERAL / COMPONENT (INCL. GROUNDMASS);ZIRCON;;;;PRIMARY;;;;;;;;;;;;;;;;;;;;;;;;;;;;;;;;;;;;;;;;;;;;;;;;;;;;;;;;;;;;;;;;;;;;;;;;;;;;;;;;;;;;;;;;;;;;;;;;;;;;;;;;;;;;;;;;;;;;;;;;;;;;;;;;;;;;;;;;;;;;;;;;;;;;;;;;;;;;;;;;;;;;;;;;;;;;;;;122;ICPMS_LA;;;132;;;;;;;;;;;;;;;;;0.05118;;;;;;;;;;;;;;;;0.01442;0.10168;0.00433;;;;;;;;;;;;;;;;;;;;;;;;;;;;;;;;;;;;249;98;92;PB206_U238 AGE;;;;;;
2013;[17640] XU WEN-LIANG (2013);samp. YB4-9;;CENTRAL ASIAN FOLDBELT - MESOZOIC / CHINA - MESOZOIC / JILIN PROVINCE / TUNTIANYING FORMATION;BADAOGOU, LONGJING CITY;43.005;129.1886;43.005;129.1886;;;OUTCROP;;;SUBAERIAL;VOLCANIC ROCK;TRACHYDACITE;;;;;MESOZOIC;;;;;MINERAL / COMPONENT (INCL. GROUNDMASS);ZIRCON;;;;PRIMARY;;;;;;;;;;;;;;;;;;;;;;;;;;;;;;;;;;;;;;;;;;;;;;;;;;;;;;;;;;;;;;;;;;;;;;;;;;;;;;;;;;;;;;;;;;;;;;;;;;;;;;;;;;;;;;;;;;;;;;;;;;;;;;;;;;;;;;;;;;;;;;;;;;;;;;;;;;;;;;;;;;;;;;;;;;;;;;;378;ICPMS_LA;;;419;;;;;;;;;;;;;;;;;0.04839;;;;;;;;;;;;;;;;0.01309;0.08734;0.00415;;;;;;;;;;;;;;;;;;;;;;;;;;;;;;;;;;;;119;85;84;PB206_U238 AGE;;;;;;
2014;[18170] DAVILA-HARRIS P. (2014);samp. TC-22;;MEXICAN VOLCANIC BELTS / TRANS MEXICAN VOLCANIC BELT / VERACRUZ / LOS HUMEROS CALDERA / CUICUILTIC MEMBER;;19.68;-97.45;19.68;-97.45;;;OUTCROP;;;SUBAERIAL;VOLCANIC ROCK;TRACHYDACITE;;PUMICE LAPILLI, C1 LAYER;;;HOLOCENE;;;;;WHOLE ROCK;;;;;;;;;;;;;68.5;0.51;;;15.87;;;;;;;;;3.28;;;;1.89;0.82;0.06;;;;;;;4.18;XRF;;;4.76;0.14;;;;;;;;;;;;;;3.03;;;;;;;;;;;;;;;;;;;;;;;;;;;;;;;;;;;;;;;;;;;;;;;;;;;;;;;;;;;;;;;;;;;;;;;;;;;;;;;;;;;;;;;;;;;;;;;;;;;;;;;;;;;;;;;;;;;;;;;;;;;;;;;;;;;;;;;;;;;;;;;;;;;;;;;;;;;;;;;;;;;;;;;;;;;;;;;;;;;;;;;;;;;;;;;;;;;;;;;;;;;;;;
2014;[18170] DAVILA-HARRIS P. (2014);samp. TC-48A;;MEXICAN VOLCANIC BELTS / TRANS MEXICAN VOLCANIC BELT / VERACRUZ / LOS HUMEROS CALDERA / CUICUILTIC MEMBER;;19.68;-97.45;19.68;-97.45;;;OUTCROP;;;SUBAERIAL;VOLCANIC ROCK;TRACHYDACITE;;PUMICE LAPILLI, C2 LAYER;;;HOLOCENE;;;;;WHOLE ROCK;;;;;;;;;;;;;67.31;0.6;;;16.1;;;;;;;;;3.45;;;;2.05;0.82;0.08;;;;;;;4.02;XRF;;;5.43;0.13;;;;;;;;;;;;;;3.7;;;;;;;;;;;;;;;;;;;;;;;;;;;;;;;;;;;;;;;;;;;;;;;;;;;;;;;;;;;;;;;;;;;;;;;;;;;;;;;;;;;;;;;;;;;;;;;;;;;;;;;;;;;;;;;;;;;;;;;;;;;;;;;;;;;;;;;;;;;;;;;;;;;;;;;;;;;;;;;;;;;;;;;;;;;;;;;;;;;;;;;;;;;;;;;;;;;;;;;;;;;;;;
2014;[18170] DAVILA-HARRIS P. (2014);samp. TC-24;;MEXICAN VOLCANIC BELTS / TRANS MEXICAN VOLCANIC BELT / VERACRUZ / LOS HUMEROS CALDERA / CUICUILTIC MEMBER;;19.68;-97.45;19.68;-97.45;;;OUTCROP;;;SUBAERIAL;VOLCANIC ROCK;TRACHYDACITE;;PUMICE LAPILLI, C2 LAYER;;;HOLOCENE;;;;;WHOLE ROCK;;;;;;;;;;;;;68.49;0.54;;;15.48;;;;;;;;;3.4;;;;1.91;0.83;0.07;;;;;;;4.24;XRF;;;4.9;0.15;;;;;;;;;;;;;;3.05;;;;;;;;;;;;;;;;;;;;;;;;;;;;;;;;;;;;;;;;;;;;;;;;;;;;;;;;;;;;;;;;;;;;;;;;;;;;;;;;;;;;;;;;;;;;;;;;;;;;;;;;;;;;;;;;;;;;;;;;;;;;;;;;;;;;;;;;;;;;;;;;;;;;;;;;;;;;;;;;;;;;;;;;;;;;;;;;;;;;;;;;;;;;;;;;;;;;;;;;;;;;;;
2014;[18170] DAVILA-HARRIS P. (2014);samp. TC-26;;MEXICAN VOLCANIC BELTS / TRANS MEXICAN VOLCANIC BELT / VERACRUZ / LOS HUMEROS CALDERA / CUICUILTIC MEMBER;;19.68;-97.45;19.68;-97.45;;;OUTCROP;;;SUBAERIAL;VOLCANIC ROCK;TRACHYDACITE;;PUMICE LAPILLI, C3 LAYER;;;HOLOCENE;;;;;WHOLE ROCK;;;;;;;;;;;;;65.25;0.78;;;16.23;;;;;;;;;4.78;;;;2.77;1.47;0.08;;;;;;;3.6;XRF;;;4.84;0.2;;;;;;;;;;;;;;2.46;;;;;;;;;;;;;;;;;;;;;;;;;;;;;;;;;;;;;;;;;;;;;;;;;;;;;;;;;;;;;;;;;;;;;;;;;;;;;;;;;;;;;;;;;;;;;;;;;;;;;;;;;;;;;;;;;;;;;;;;;;;;;;;;;;;;;;;;;;;;;;;;;;;;;;;;;;;;;;;;;;;;;;;;;;;;;;;;;;;;;;;;;;;;;;;;;;;;;;;;;;;;;;
2014;[18170] DAVILA-HARRIS P. (2014);samp. TC-28;;MEXICAN VOLCANIC BELTS / TRANS MEXICAN VOLCANIC BELT / VERACRUZ / LOS HUMEROS CALDERA / CUICUILTIC MEMBER;;19.68;-97.45;19.68;-97.45;;;OUTCROP;;;SUBAERIAL;VOLCANIC ROCK;TRACHYDACITE;;PUMICE LAPILLI, C5 LAYER;;;HOLOCENE;;;;;WHOLE ROCK;;;;;;;;;;;;;66.9;0.63;;;16.32;;;;;;;;;3.94;;;;2.06;0.89;0.08;;;;;;;3.79;XRF;;;5.22;0.17;;;;;;;;;;;;;;3.17;;;;;;;;;;;;;;;;;;;;;;;;;;;;;;;;;;;;;;;;;;;;;;;;;;;;;;;;;;;;;;;;;;;;;;;;;;;;;;;;;;;;;;;;;;;;;;;;;;;;;;;;;;;;;;;;;;;;;;;;;;;;;;;;;;;;;;;;;;;;;;;;;;;;;;;;;;;;;;;;;;;;;;;;;;;;;;;;;;;;;;;;;;;;;;;;;;;;;;;;;;;;;;
2014;[18170] DAVILA-HARRIS P. (2014);samp. TC-13A;;MEXICAN VOLCANIC BELTS / TRANS MEXICAN VOLCANIC BELT / VERACRUZ / LOS HUMEROS CALDERA / CUICUILTIC MEMBER;;19.68;-97.45;19.68;-97.45;;;OUTCROP;;;SUBAERIAL;VOLCANIC ROCK;TRACHYDACITE;;PUMICE LAPILLI, C8 LAYER;;;HOLOCENE;;;;;WHOLE ROCK;;;;;;;;;;;;;66.1;0.67;;;16.82;;;;;;;;;4.18;;;;2.14;0.97;0.08;;;;;;;3.67;XRF;;;5.21;0.17;;;;;;;;;;;;;;3.58;;;;;;;;;;;;;;;;;;;;;;;;;;;;;;;;;;;;;;;;;;;;;;;;;;;;;;;;;;;;;;;;;;;;;;;;;;;;;;;;;;;;;;;;;;;;;;;;;;;;;;;;;;;;;;;;;;;;;;;;;;;;;;;;;;;;;;;;;;;;;;;;;;;;;;;;;;;;;;;;;;;;;;;;;;;;;;;;;;;;;;;;;;;;;;;;;;;;;;;;;;;;;;
2014;[18180] LIU LEI (2014);samp. HS01;;CENTRAL ASIAN FOLDBELT - MESOZOIC / CHINA - MESOZOIC / ZHEJIANG PROVINCE / HENGSHAN FORMATION;;29.4012;119.8638;29.4012;119.8638;;;OUTCROP;;;SUBAERIAL;VOLCANIC ROCK;TRACHYDACITE;;;;;;;;;;MINERAL / COMPONENT (INCL. GROUNDMASS);ZIRCON;HS01-01;;;PRIMARY;;;;;;;;;;;;;;;;;;;;;;;;;;;;;;;;;;;;;;;;;;;;;;;;;;;;;;;;;;;;;;;;;;;;;;;;;;;;;;;;;;;;;;;;;;;;;;;;;;;;;;;;;;;;;;;;;;;;;;;;;;;;;;;;;;;;;;;;;;;;;;;;;;;;;;;;;;;;;;;;;;;;;;;;;;;;;;;297;Q_ICPMS_LA;;;217;;;;;;;;;;;;;;;;;0.04839;;;;0.282752;;;0.000478;0.015001;;;;;;;;0.01863;0.1244;0.00379;;;;;;;;;;;;;;;;;;;;;;;;;;;;;;;;;;;;118;119;119;PB206_U238 AGE;;;;;76;
2014;[18180] LIU LEI (2014);samp. HS01;;CENTRAL ASIAN FOLDBELT - MESOZOIC / CHINA - MESOZOIC / ZHEJIANG PROVINCE / HENGSHAN FORMATION;;29.4012;119.8638;29.4012;119.8638;;;OUTCROP;;;SUBAERIAL;VOLCANIC ROCK;TRACHYDACITE;;;;;;;;;;MINERAL / COMPONENT (INCL. GROUNDMASS);ZIRCON;HS01-02;;;PRIMARY;;;;;;;;;;;;;;;;;;;;;;;;;;;;;;;;;;;;;;;;;;;;;;;;;;;;;;;;;;;;;;;;;;;;;;;;;;;;;;;;;;;;;;;;;;;;;;;;;;;;;;;;;;;;;;;;;;;;;;;;;;;;;;;;;;;;;;;;;;;;;;;;;;;;;;;;;;;;;;;;;;;;;;;;;;;;;;;181;Q_ICPMS_LA;;;236;;;;;;;;;;;;;;;;;0.04846;;;;0.282742;;;0.003534;0.112158;;;;;;;;0.01858;0.12408;0.0065;;;;;;;;;;;;;;;;;;;;;;;;;;;;;;;;;;;;122;119;119;PB206_U238 AGE;;;;;131;
2014;[18180] LIU LEI (2014);samp. HS01;;CENTRAL ASIAN FOLDBELT - MESOZOIC / CHINA - MESOZOIC / ZHEJIANG PROVINCE / HENGSHAN FORMATION;;29.4012;119.8638;29.4012;119.8638;;;OUTCROP;;;SUBAERIAL;VOLCANIC ROCK;TRACHYDACITE;;;;;;;;;;MINERAL / COMPONENT (INCL. GROUNDMASS);ZIRCON;HS01-03;;;PRIMARY;;;;;;;;;;;;;;;;;;;;;;;;;;;;;;;;;;;;;;;;;;;;;;;;;;;;;;;;;;;;;;;;;;;;;;;;;;;;;;;;;;;;;;;;;;;;;;;;;;;;;;;;;;;;;;;;;;;;;;;;;;;;;;;;;;;;;;;;;;;;;;;;;;;;;;;;;;;;;;;;;;;;;;;;;;;;;;;60;Q_ICPMS_LA;;;73;;;;;;;;;;;;;;;;;0.0486;;;;0.282755;;;0.001772;0.068173;;;;;;;;0.01883;0.1262;0.00682;;;;;;;;;;;;;;;;;;;;;;;;;;;;;;;;;;;;129;121;120;PB206_U238 AGE;;;;;137;
2014;[18180] LIU LEI (2014);samp. HS01;;CENTRAL ASIAN FOLDBELT - MESOZOIC / CHINA - MESOZOIC / ZHEJIANG PROVINCE / HENGSHAN FORMATION;;29.4012;119.8638;29.4012;119.8638;;;OUTCROP;;;SUBAERIAL;VOLCANIC ROCK;TRACHYDACITE;;;;;;;;;;MINERAL / COMPONENT (INCL. GROUNDMASS);ZIRCON;HS01-04;;;PRIMARY;;;;;;;;;;;;;;;;;;;;;;;;;;;;;;;;;;;;;;;;;;;;;;;;;;;;;;;;;;;;;;;;;;;;;;;;;;;;;;;;;;;;;;;;;;;;;;;;;;;;;;;;;;;;;;;;;;;;;;;;;;;;;;;;;;;;;;;;;;;;;;;;;;;;;;;;;;;;;;;;;;;;;;;;;;;;;;;318;Q_ICPMS_LA;;;432;;;;;;;;;;;;;;;;;0.0473;;;;0.282753;;;0.000743;0.026496;;;;;;;;0.0191;0.12482;0.0032;;;;;;;;;;;;;;;;;;;;;;;;;;;;;;;;;;;;64;119;122;PB206_U238 AGE;;;;;65;
2014;[18180] LIU LEI (2014);samp. HS01;;CENTRAL ASIAN FOLDBELT - MESOZOIC / CHINA - MESOZOIC / ZHEJIANG PROVINCE / HENGSHAN FORMATION;;29.4012;119.8638;29.4012;119.8638;;;OUTCROP;;;SUBAERIAL;VOLCANIC ROCK;TRACHYDACITE;;;;;;;;;;MINERAL / COMPONENT (INCL. GROUNDMASS);ZIRCON;HS01-05;;;PRIMARY;;;;;;;;;;;;;;;;;;;;;;;;;;;;;;;;;;;;;;;;;;;;;;;;;;;;;;;;;;;;;;;;;;;;;;;;;;;;;;;;;;;;;;;;;;;;;;;;;;;;;;;;;;;;;;;;;;;;;;;;;;;;;;;;;;;;;;;;;;;;;;;;;;;;;;;;;;;;;;;;;;;;;;;;;;;;;;;173;Q_ICPMS_LA;;;124;;;;;;;;;;;;;;;;;0.04821;;;;0.282733;;;0.001507;0.053563;;;;;;;;0.01814;0.12063;0.0055;;;;;;;;;;;;;;;;;;;;;;;;;;;;;;;;;;;;110;116;116;PB206_U238 AGE;;;;;111;
2014;[18180] LIU LEI (2014);samp. HS01;;CENTRAL ASIAN FOLDBELT - MESOZOIC / CHINA - MESOZOIC / ZHEJIANG PROVINCE / HENGSHAN FORMATION;;29.4012;119.8638;29.4012;119.8638;;;OUTCROP;;;SUBAERIAL;VOLCANIC ROCK;TRACHYDACITE;;;;;;;;;;MINERAL / COMPONENT (INCL. GROUNDMASS);ZIRCON;HS01-06;;;PRIMARY;;;;;;;;;;;;;;;;;;;;;;;;;;;;;;;;;;;;;;;;;;;;;;;;;;;;;;;;;;;;;;;;;;;;;;;;;;;;;;;;;;;;;;;;;;;;;;;;;;;;;;;;;;;;;;;;;;;;;;;;;;;;;;;;;;;;;;;;;;;;;;;;;;;;;;;;;;;;;;;;;;;;;;;;;;;;;;;133;Q_ICPMS_LA;;;231;;;;;;;;;;;;;;;;;0.04759;;;;0.282737;;;0.0019;0.05186;;;;;;;;0.01838;0.12061;0.00616;;;;;;;;;;;;;;;;;;;;;;;;;;;;;;;;;;;;79;116;117;PB206_U238 AGE;;;;;124;
2014;[18180] LIU LEI (2014);samp. HS01;;CENTRAL ASIAN FOLDBELT - MESOZOIC / CHINA - MESOZOIC / ZHEJIANG PROVINCE / HENGSHAN FORMATION;;29.4012;119.8638;29.4012;119.8638;;;OUTCROP;;;SUBAERIAL;VOLCANIC ROCK;TRACHYDACITE;;;;;;;;;;MINERAL / COMPONENT (INCL. GROUNDMASS);ZIRCON;HS01-07;;;PRIMARY;;;;;;;;;;;;;;;;;;;;;;;;;;;;;;;;;;;;;;;;;;;;;;;;;;;;;;;;;;;;;;;;;;;;;;;;;;;;;;;;;;;;;;;;;;;;;;;;;;;;;;;;;;;;;;;;;;;;;;;;;;;;;;;;;;;;;;;;;;;;;;;;;;;;;;;;;;;;;;;;;;;;;;;;;;;;;;;26;Q_ICPMS_LA;;;49;;;;;;;;;;;;;;;;;0.04842;;;;0.282755;;;0.000766;0.026493;;;;;;;;0.01858;0.12407;0.00585;;;;;;;;;;;;;;;;;;;;;;;;;;;;;;;;;;;;120;119;119;PB206_U238 AGE;;;;;118;
2014;[18180] LIU LEI (2014);samp. HS01;;CENTRAL ASIAN FOLDBELT - MESOZOIC / CHINA - MESOZOIC / ZHEJIANG PROVINCE / HENGSHAN FORMATION;;29.4012;119.8638;29.4012;119.8638;;;OUTCROP;;;SUBAERIAL;VOLCANIC ROCK;TRACHYDACITE;;;;;;;;;;MINERAL / COMPONENT (INCL. GROUNDMASS);ZIRCON;HS01-08;;;PRIMARY;;;;;;;;;;;;;;;;;;;;;;;;;;;;;;;;;;;;;;;;;;;;;;;;;;;;;;;;;;;;;;;;;;;;;;;;;;;;;;;;;;;;;;;;;;;;;;;;;;;;;;;;;;;;;;;;;;;;;;;;;;;;;;;;;;;;;;;;;;;;;;;;;;;;;;;;;;;;;;;;;;;;;;;;;;;;;;;73;Q_ICPMS_LA;;;98;;;;;;;;;;;;;;;;;0.04933;;;;0.282753;;;0.000786;0.026599;;;;;;;;0.01819;0.12386;0.00138;;;;;;;;;;;;;;;;;;;;;;;;;;;;;;;;;;;;164;119;116;PB206_U238 AGE;;;;;28;
2014;[18180] LIU LEI (2014);samp. HS01;;CENTRAL ASIAN FOLDBELT - MESOZOIC / CHINA - MESOZOIC / ZHEJIANG PROVINCE / HENGSHAN FORMATION;;29.4012;119.8638;29.4012;119.8638;;;OUTCROP;;;SUBAERIAL;VOLCANIC ROCK;TRACHYDACITE;;;;;;;;;;MINERAL / COMPONENT (INCL. GROUNDMASS);ZIRCON;HS01-09;;;PRIMARY;;;;;;;;;;;;;;;;;;;;;;;;;;;;;;;;;;;;;;;;;;;;;;;;;;;;;;;;;;;;;;;;;;;;;;;;;;;;;;;;;;;;;;;;;;;;;;;;;;;;;;;;;;;;;;;;;;;;;;;;;;;;;;;;;;;;;;;;;;;;;;;;;;;;;;;;;;;;;;;;;;;;;;;;;;;;;;;200;Q_ICPMS_LA;;;149;;;;;;;;;;;;;;;;;0.04952;;;;0.282736;;;0.001275;0.039164;;;;;;;;0.0184;0.12564;0.00636;;;;;;;;;;;;;;;;;;;;;;;;;;;;;;;;;;;;173;120;118;PB206_U238 AGE;;;;;128;
2014;[18180] LIU LEI (2014);samp. HS01;;CENTRAL ASIAN FOLDBELT - MESOZOIC / CHINA - MESOZOIC / ZHEJIANG PROVINCE / HENGSHAN FORMATION;;29.4012;119.8638;29.4012;119.8638;;;OUTCROP;;;SUBAERIAL;VOLCANIC ROCK;TRACHYDACITE;;;;;;;;;;MINERAL / COMPONENT (INCL. GROUNDMASS);ZIRCON;HS01-10;;;PRIMARY;;;;;;;;;;;;;;;;;;;;;;;;;;;;;;;;;;;;;;;;;;;;;;;;;;;;;;;;;;;;;;;;;;;;;;;;;;;;;;;;;;;;;;;;;;;;;;;;;;;;;;;;;;;;;;;;;;;;;;;;;;;;;;;;;;;;;;;;;;;;;;;;;;;;;;;;;;;;;;;;;;;;;;;;;;;;;;;250;Q_ICPMS_LA;;;172;;;;;;;;;;;;;;;;;0.04838;;;;0.282743;;;0.002993;0.0883;;;;;;;;0.01842;0.12285;0.00568;;;;;;;;;;;;;;;;;;;;;;;;;;;;;;;;;;;;118;118;118;PB206_U238 AGE;;;;;114;
2014;[18180] LIU LEI (2014);samp. HS01;;CENTRAL ASIAN FOLDBELT - MESOZOIC / CHINA - MESOZOIC / ZHEJIANG PROVINCE / HENGSHAN FORMATION;;29.4012;119.8638;29.4012;119.8638;;;OUTCROP;;;SUBAERIAL;VOLCANIC ROCK;TRACHYDACITE;;;;;;;;;;MINERAL / COMPONENT (INCL. GROUNDMASS);ZIRCON;HS01-11;;;PRIMARY;;;;;;;;;;;;;;;;;;;;;;;;;;;;;;;;;;;;;;;;;;;;;;;;;;;;;;;;;;;;;;;;;;;;;;;;;;;;;;;;;;;;;;;;;;;;;;;;;;;;;;;;;;;;;;;;;;;;;;;;;;;;;;;;;;;;;;;;;;;;;;;;;;;;;;;;;;;;;;;;;;;;;;;;;;;;;;;106;Q_ICPMS_LA;;;145;;;;;;;;;;;;;;;;;0.05079;;;;0.282728;;;0.003024;0.091551;;;;;;;;0.01834;0.12841;0.0047;;;;;;;;;;;;;;;;;;;;;;;;;;;;;;;;;;;;231;123;117;PB206_U238 AGE;;;;;95;
2014;[18180] LIU LEI (2014);samp. HS01;;CENTRAL ASIAN FOLDBELT - MESOZOIC / CHINA - MESOZOIC / ZHEJIANG PROVINCE / HENGSHAN FORMATION;;29.4012;119.8638;29.4012;119.8638;;;OUTCROP;;;SUBAERIAL;VOLCANIC ROCK;TRACHYDACITE;;;;;;;;;;MINERAL / COMPONENT (INCL. GROUNDMASS);ZIRCON;HS01-12;;;PRIMARY;;;;;;;;;;;;;;;;;;;;;;;;;;;;;;;;;;;;;;;;;;;;;;;;;;;;;;;;;;;;;;;;;;;;;;;;;;;;;;;;;;;;;;;;;;;;;;;;;;;;;;;;;;;;;;;;;;;;;;;;;;;;;;;;;;;;;;;;;;;;;;;;;;;;;;;;;;;;;;;;;;;;;;;;;;;;;;;158;Q_ICPMS_LA;;;150;;;;;;;;;;;;;;;;;0.04833;;;;0.28273;;;0.001352;0.048772;;;;;;;;0.02111;0.14061;0.00251;;;;;;;;;;;;;;;;;;;;;;;;;;;;;;;;;;;;115;134;135;PB206_U238 AGE;;;;;51;
2014;[18180] LIU LEI (2014);samp. HS01;;CENTRAL ASIAN FOLDBELT - MESOZOIC / CHINA - MESOZOIC / ZHEJIANG PROVINCE / HENGSHAN FORMATION;;29.4012;119.8638;29.4012;119.8638;;;OUTCROP;;;SUBAERIAL;VOLCANIC ROCK;TRACHYDACITE;;;;;;;;;;MINERAL / COMPONENT (INCL. GROUNDMASS);ZIRCON;HS01-13;;;PRIMARY;;;;;;;;;;;;;;;;;;;;;;;;;;;;;;;;;;;;;;;;;;;;;;;;;;;;;;;;;;;;;;;;;;;;;;;;;;;;;;;;;;;;;;;;;;;;;;;;;;;;;;;;;;;;;;;;;;;;;;;;;;;;;;;;;;;;;;;;;;;;;;;;;;;;;;;;;;;;;;;;;;;;;;;;;;;;;;;155;Q_ICPMS_LA;;;122;;;;;;;;;;;;;;;;;0.05016;;;;0.282436;;;0.001298;0.041622;;;;;;;;0.01812;0.12532;0.00462;;;;;;;;;;;;;;;;;;;;;;;;;;;;;;;;;;;;202;120;116;PB206_U238 AGE;;;;;93;
2014;[18180] LIU LEI (2014);samp. HS01;;CENTRAL ASIAN FOLDBELT - MESOZOIC / CHINA - MESOZOIC / ZHEJIANG PROVINCE / HENGSHAN FORMATION;;29.4012;119.8638;29.4012;119.8638;;;OUTCROP;;;SUBAERIAL;VOLCANIC ROCK;TRACHYDACITE;;;;;;;;;;MINERAL / COMPONENT (INCL. GROUNDMASS);ZIRCON;HS01-14;;;PRIMARY;;;;;;;;;;;;;;;;;;;;;;;;;;;;;;;;;;;;;;;;;;;;;;;;;;;;;;;;;;;;;;;;;;;;;;;;;;;;;;;;;;;;;;;;;;;;;;;;;;;;;;;;;;;;;;;;;;;;;;;;;;;;;;;;;;;;;;;;;;;;;;;;;;;;;;;;;;;;;;;;;;;;;;;;;;;;;;;179;Q_ICPMS_LA;;;127;;;;;;;;;;;;;;;;;0.04849;;;;0.282742;;;0.002601;0.072154;;;;;;;;0.01829;0.12229;0.00625;;;;;;;;;;;;;;;;;;;;;;;;;;;;;;;;;;;;123;117;117;PB206_U238 AGE;;;;;126;
2014;[18180] LIU LEI (2014);samp. HS01;;CENTRAL ASIAN FOLDBELT - MESOZOIC / CHINA - MESOZOIC / ZHEJIANG PROVINCE / HENGSHAN FORMATION;;29.4012;119.8638;29.4012;119.8638;;;OUTCROP;;;SUBAERIAL;VOLCANIC ROCK;TRACHYDACITE;;;;;;;;;;MINERAL / COMPONENT (INCL. GROUNDMASS);ZIRCON;HS01-15;;;PRIMARY;;;;;;;;;;;;;;;;;;;;;;;;;;;;;;;;;;;;;;;;;;;;;;;;;;;;;;;;;;;;;;;;;;;;;;;;;;;;;;;;;;;;;;;;;;;;;;;;;;;;;;;;;;;;;;;;;;;;;;;;;;;;;;;;;;;;;;;;;;;;;;;;;;;;;;;;;;;;;;;;;;;;;;;;;;;;;;;144;Q_ICPMS_LA;;;111;;;;;;;;;;;;;;;;;0.04853;;;;0.282735;;;0.002778;0.082387;;;;;;;;0.0191;0.12793;0.00435;;;;;;;;;;;;;;;;;;;;;;;;;;;;;;;;;;;;125;122;122;PB206_U238 AGE;;;;;88;