Year;CITATION;SAMPLE NAME;UNIQUE_ID;LOCATION;LOCATION COMMENT;LATITUDE (MIN.);LONGITUDE (MIN.);LATITUDE (MAX.);LONGITUDE (MAX.);ELEVATION (MIN.);ELEVATION (MAX.);SAMPLING TECHNIQUE;DRILLING DEPTH (MIN.);DRILLING DEPTH (MAX.);LAND/SEA (SAMPLING);ROCK TYPE;ROCK NAME;ROCK TEXTURE;SAMPLE COMMENT;AGE (MIN.);AGE (MAX.);GEOLOGICAL AGE;GEOLOGICAL AGE PREFIX;ERUPTION YEAR;ALTERATION;ALTERATION TYPE;TYPE OF MATERIAL;MINERAL / COMPONENT;SPOT (MINERAL);CRYSTAL;RIM / CORE (MINERAL GRAINS);PRIMARY/SECONDARY;INCLUSION TYPE;SPOT (INCLUSION);MINERAL (INCLUSION);RIM / CORE (INCLUSION);HOSTMINERAL (INCLUSION);HEATING;HEATING TEMPERATURE (?C);SIO2(WT%);TIO2(WT%);ZRO2(WT%);B2O3(WT%);AL2O3(WT%);CR2O3(WT%);LA2O3(WT%);CE2O3(WT%);Y2O3(WT%);V2O3(WT%);NB2O3(WT%);TA2O5(WT%);WO3(WT%);FE2O3T(WT%);FE2O3(WT%);FEOT(WT%);FEO(WT%);CAO(WT%);MGO(WT%);MNO(WT%);BAO(WT%);SRO(WT%);NIO(WT%);ZNO(WT%);CS2O(WT%);RB2O(WT%);K2O(WT%);;;;NA2O(WT%);P2O5(WT%);H2O(WT%);;;;H2OP(WT%);H2OM(WT%);CO2(WT%);C(WT%);F(WT%);CL(WT%);SO2(WT%);SO3(WT%);S(WT%);LOI(WT%);AL(WT%);TI(WT%);FE(WT%);MG(WT%);CA(WT%);K(WT%);NA(WT%);LI(PPM);BE(PPM);B(PPM);C(PPM);F(PPM);NA(PPM);MG(PPM);AL(PPM);P(PPM);S(PPM);CL(PPM);AR40(AT/G);AR40(CCMSTP/G);AR40(MOL/G);AR40(PPB);K(PPM);CA(PPM);SC(PPM);;;;TI(PPM);;;;V(PPM);CR(PPM);MN(PPM);FE(PPM);CO(PPM);NI(PPM);CU(PPM);ZN(PPM);GA(PPM);GE(PPM);AS(PPM);SE(PPM);BR(PPM);RB(PPM): altern. values or methods;;;;SR(PPM): altern. values or methods;;;;Y(PPM): altern. values or methods;;;;ZR(PPM): altern. values or methods;;;;NB(PPM): altern. values or methods;;;;MO(PPM): altern. values or methods;;;;AG(PPM);CD(PPM);IN(PPM);SN(PPM);SB(PPM);TE(PPM);CS(PPM);BA(PPM): altern. values or methods;;;;LA(PPM): altern. values or methods;;;;CE(PPM): altern. values or methods;;;;PR(PPM);ND(PPM): altern. values or methods;;;;SM(PPM): altern. values or methods;;;;EU(PPM);GD(PPM);TB(PPM);DY(PPM);HO(PPM);ER(PPM);TM(PPM);YB(PPM);LU(PPM);HF(PPM);TA(PPM);W(PPM);RE(PPM);AU(PPM);AU(PPB);HG(PPM);HG(PPB);TL(PPM);PB(PPM): altern. values or methods;;;;PB206(PPM);BI(PPM);TH(PPM): altern. values or methods;;;;U(PPM);ND143_ND144;ND143_ND144_INI;EPSILON_ND;EPSILON_ND_INI;SM147_ND144;SR87_SR86;SR87_SR86_INI;EPSILON_SR;EPSILON_SR_INI;RB87_SR86;PB206_PB204;PB206_PB204_INI;PB206_PB207;PB206_PB208;PB207_PB204;PB207_PB204_INI;PB207_PB206;PB208_PB204;PB208_PB204_INI;PB208_PB206;HF176_HF177;HF176_HF177_INI;EPSILON_HF_INI;LU176_HF177;YB176_HF177;AR36_AR39;AR36_AR40;AR37_AR39;AR38_AR39;AR39_AR40;AR40_AR36;AR40_AR39;PB206_U238;PB207_U235;PB208_TH232;TH232_PB204;TH232_U238;U235_PB204;U238_PB204;U238_PB206;D7LI(VS LSVEC);D18O(PER MIL);D18O(VS SMOW);D18O(VS VSMOW);D56FE(VS IRMM-014);D57FE(VS IRMM-014);DD(VS SMOW);ALBITE(MOL%);ANORTHITE(MOL%);CA OLIVINE(MOL%);ENSTATITE(MOL%);FAYALITE(MOL%);FORSTERITE(MOL%);FERROSILITE(MOL%);ORTHOCLASE(MOL%);TEPHROITE(MOL%);ULVOSPINEL(MOL%);WOLLASTONITE(MOL%);AGE(KA): altern. values or methods;;;;AGE(MA): altern. values or methods;;;;;;;;AGE_PB207_PB206(MA);AGE_PB207_U235(MA);AGE_PB206_U238(MA): altern. values or methods;;;;;;AGE_PB208_TH232(MA);
2007;[16462] JANASI V. A. (2007);samp. OU-02;;PARANA / NORTHERN PARANA PROVINCE / SERRA GERAL FORMATION;PIRAJU-OURINHOS REGION, SAO PAULO;-23;-49;-23.3;-50;;;OUTCROP;;;SUBAERIAL;VOLCANIC ROCK;TRACHYDACITE;;LAVA FLOW, GLASSY GRAY;;;CRETACEOUS;LOWER;;;;WHOLE ROCK;;;;;;;;;;;;;;1.22;;;12.83;;;;;;;;;6.65;;;;2.26;1.21;0.1;;;;;;;4.44;ICPOES;;;3.39;0.31;;;;;;;;;;;;;;1.36;;;;;;;;;;;;;;;;;;;;;;;;;;;;;;;;;45;;;;;;;;;;;;;;;;;327;ICPOES;;;57;ICPOES;;;495;ICPOES;;;;;;;;;;;;;;;;;;1054;ICPOES;;;64;ICPOES;;;;;;;;;;;;;;;;;;;;;;;;;;;;;;;;;;;;;;;;;;;;;;;;;;;;;;;;;;;;;;;;;;;;;;;;;;;;;;;;;;;;;;;;;;;;;;;;;;;;;;;;;;;;;;;;;;;;;;;;;;;;
2007;[16462] JANASI V. A. (2007);samp. OU-07;;PARANA / NORTHERN PARANA PROVINCE / SERRA GERAL FORMATION;PIRAJU-OURINHOS REGION, SAO PAULO;-23;-49;-23.3;-50;;;OUTCROP;;;SUBAERIAL;VOLCANIC ROCK;TRACHYDACITE;;LAVA FLOW, GRANULAR;;;CRETACEOUS;LOWER;;;;WHOLE ROCK;;;;;;;;;;;;;64.94;1.22;;;12.95;;;;;;;;;6.73;;;;2.62;1.06;0.14;;;;;;;4.28;ICPOES;;;3.43;0.32;;;;;;;;;;;;;;1;;;;;;;;;;;;;;;;;;;;;;;;;;;;;;;;;43;;;;;;;;;;;;;;;;;333;ICPOES;;;56;ICPOES;;;509;ICPOES;;;;;;;;;;;;;;;;;;1124;ICPOES;;;71;ICPOES;;;;;;;;;;;;;;;;;;;;;;;;;;;;;;;;;;;;;;;;;;;;;;;;;;;;;;;;;;;;;;;;;;;;;;;;;;;;;;;;;;;;;;;;;;;;;;;;;;;;;;;;;;;;;;;;;;;;;;;;;;;;
2007;[16462] JANASI V. A. (2007);samp. OU-09;;PARANA / NORTHERN PARANA PROVINCE / SERRA GERAL FORMATION;PIRAJU-OURINHOS REGION, SAO PAULO;-23;-49;-23.3;-50;;;OUTCROP;;;SUBAERIAL;VOLCANIC ROCK;TRACHYDACITE;;LAVA FLOW, GRANULAR;;;CRETACEOUS;LOWER;;;;WHOLE ROCK;;;;;;;;;;;;;65.8;1.22;;;13.24;;;;;;;;;6.62;;;;1.65;0.67;0.01;;;;;;;4.26;ICPOES;;;3.29;0.33;;;;;;;;;;;;;;1.78;;;;;;;;;;;;;;;;;;;;;;;;;;;;;;;;;49;;;;;;;;;;;;;;;;;334;ICPOES;;;90;ICPOES;;;523;ICPOES;;;;;;;;;;;;;;;;;;1309;ICPOES;;;66;ICPOES;;;;;;;;;;;;;;;;;;;;;;;;;;;;;;;;;;;;;;;;;;;;;;;;;;;;;;;;;;;;;;;;;;;;;;;;;;;;;;;;;;;;;;;;;;;;;;;;;;;;;;;;;;;;;;;;;;;;;;;;;;;;
2007;[16462] JANASI V. A. (2007);samp. OU-12;;PARANA / NORTHERN PARANA PROVINCE / SERRA GERAL FORMATION;PIRAJU-OURINHOS REGION, SAO PAULO;-23;-49;-23.3;-50;;;OUTCROP;;;SUBAERIAL;VOLCANIC ROCK;TRACHYDACITE;;LAVA FLOW, GRANULAR;;;CRETACEOUS;LOWER;;;;WHOLE ROCK;;;;;;;;;;;;;65.57;1.18;;;12.94;;;;;;;;;6.62;;;;2.41;1.17;0.12;;;;;;;4.45;ICPOES;;;3.27;0.31;;;;;;;;;;;;;;1.2;;;;;;;;;;;;;;;;;;;;;;;;;;;;;;;;;55;;;;;;;;;;;;;;;;;325;ICPOES;;;55;ICPOES;;;509;ICPOES;;;;;;;;;;;;;;;;;;1114;ICPOES;;;73;ICPOES;;;;;;;;;;;;;;;;;;;;;;;;;;;;;;;;;;;;;;;;;;;;;;;;;;;;;;;;;;;;;;;;;;;;;;;;;;;;;;;;;;;;;;;;;;;;;;;;;;;;;;;;;;;;;;;;;;;;;;;;;;;;
2007;[16462] JANASI V. A. (2007);samp. OU-14;;PARANA / NORTHERN PARANA PROVINCE / SERRA GERAL FORMATION;PIRAJU-OURINHOS REGION, SAO PAULO;-23;-49;-23.3;-50;;;OUTCROP;;;SUBAERIAL;VOLCANIC ROCK;TRACHYDACITE;;LAVA FLOW, CHOCOLATE BROWN;;;CRETACEOUS;LOWER;;;;WHOLE ROCK;;;;;;;;;;;;;65.05;1.18;;;12.86;;;;;;;;;6.62;;;;2.19;1.24;0.11;;;;;;;4.42;ICPOES;;;3.28;0.31;;;;;;;;;;;;;;1.5;;;;;;;;;;;;;;;;;;;;;;;;;;;;;;;;;40;;;;;;;;;;;;;;;;;339;ICPOES;;;55;ICPOES;;;496;ICPOES;;;;;;;;;;;;;;;;;;1297;ICPOES;;;70;ICPOES;;;;;;;;;;;;;;;;;;;;;;;;;;;;;;;;;;;;;;;;;;;;;;;;;;;;;;;;;;;;;;;;;;;;;;;;;;;;;;;;;;;;;;;;;;;;;;;;;;;;;;;;;;;;;;;;;;;;;;;;;;;;
2007;[16462] JANASI V. A. (2007);samp. FTM-225B;;PARANA / NORTHERN PARANA PROVINCE / SERRA GERAL FORMATION;PIRAJU-OURINHOS REGION, SAO PAULO;-23;-49;-23.3;-50;;;OUTCROP;;;SUBAERIAL;VOLCANIC ROCK;TRACHYDACITE;;LAVA FLOW, CHOCOLATE BROWN WITH VESICLES;;;CRETACEOUS;LOWER;;;;WHOLE ROCK;;;;;;;;;;;;;64.52;1.22;;;13.54;;;;;;;;;7.24;;;;1.24;0.33;0.17;;;;;;;4.57;ICPOES;;;3.07;0.32;;;;;;;;;;;;;;2;;;;;;;;;;;;;;;;;;;;;;;;;;;;;;;;;26;;;;;;;;;;;;;;;;;336;ICPOES;;;369;ICPOES;;;438;ICPOES;;;;;;;;;;;;;;;;;;2219;ICPOES;;;58;ICPOES;;;;;;;;;;;;;;;;;;;;;;;;;;;;;;;;;;;;;;;;;;;;;;;;;;;;;;;;;;;;;;;;;;;;;;;;;;;;;;;;;;;;;;;;;;;;;;;;;;;;;;;;;;;;;;;;;;;;;;;;;;;;
2007;[16462] JANASI V. A. (2007);samp. FTM-259A;;PARANA / NORTHERN PARANA PROVINCE / SERRA GERAL FORMATION;PIRAJU-OURINHOS REGION, SAO PAULO;-23;-49;-23.3;-50;;;OUTCROP;;;SUBAERIAL;VOLCANIC ROCK;TRACHYDACITE;;LAVA FLOW, CHOCOLATE BROWN WITH VESICLES;;;CRETACEOUS;LOWER;;;;WHOLE ROCK;;;;;;;;;;;;;63.67;1.31;;;14.34;;;;;;;;;7.8;;;;1.37;0.13;0.17;;;;;;;5.38;ICPOES;;;3.17;0.34;;;;;;;;;;;;;;1.59;;;;;;;;;;;;;;;;;;;;;;;;;;;;;;;;;31;;;;;;;;;;;;;;;;;311;ICPOES;;;63;ICPOES;;;497;ICPOES;;;;;;;;;;;;;;;;;;1352;ICPOES;;;60;ICPOES;;;;;;;;;;;;;;;;;;;;;;;;;;;;;;;;;;;;;;;;;;;;;;;;;;;;;;;;;;;;;;;;;;;;;;;;;;;;;;;;;;;;;;;;;;;;;;;;;;;;;;;;;;;;;;;;;;;;;;;;;;;;
2007;[16462] JANASI V. A. (2007);samp. FTM-258;;PARANA / NORTHERN PARANA PROVINCE / SERRA GERAL FORMATION;PIRAJU-OURINHOS REGION, SAO PAULO;-23;-49;-23.3;-50;;;OUTCROP;;;SUBAERIAL;VOLCANIC ROCK;TRACHYDACITE;;LAVA FLOW, CHOCOLATE BROWN WITH VESICLES;;;CRETACEOUS;LOWER;;;;WHOLE ROCK;;;;;;;;;;;;;68.17;1.04;;;12.33;;;;;;;;;7.02;;;;1.34;0.37;0.13;;;;;;;4.44;ICPOES;;;2.89;0.27;;;;;;;;;;;;;;1.55;;;;;;;;;;;;;;;;;;;;;;;;;;;;;;;;;55;;;;;;;;;;;;;;;;;261;ICPOES;;;169;ICPOES;;;374;ICPOES;;;;;;;;;;;;;;;;;;1136;ICPOES;;;58;ICPOES;;;;;;;;;;;;;;;;;;;;;;;;;;;;;;;;;;;;;;;;;;;;;;;;;;;;;;;;;;;;;;;;;;;;;;;;;;;;;;;;;;;;;;;;;;;;;;;;;;;;;;;;;;;;;;;;;;;;;;;;;;;;
2007;[16462] JANASI V. A. (2007);samp. OU-01A;;PARANA / NORTHERN PARANA PROVINCE / SERRA GERAL FORMATION;PIRAJU-OURINHOS REGION, SAO PAULO;-23;-49;-23.3;-50;;;OUTCROP;;;SUBAERIAL;VOLCANIC ROCK;TRACHYDACITE;;LAVA FLOW, GLASSY GRAY;;;CRETACEOUS;LOWER;;;;MINERAL / COMPONENT (INCL. GROUNDMASS);PLAGIOCLASE;;MICROPHENOCRYST;CORE;PRIMARY;;;;;;;;58.54;0.1;;;25.16;;;;;;;;;;;0.62;;7.68;0.04;0.01;;;;;;;0.7;EMP (EPMA);;;6.32;;;;;;;;;;;;;;;;;;;;;;;;;;;;;;;;;;;;;;;;;;;;;;;;;;;;;;;;;;;;;;;;;;;;;;;;;;;;;;;;;;;;;;;;;;;;;;;;;;;;;;;;;;;;;;;;;;;;;;;;;;;;;;;;;;;;;;;;;;;;;;;;;;;;;;;;;;;;;;;;;;;;;;;;;;;;;;;;;;;;;;;;;;;;;57.3;38.5;;;;;;4.2;;;;;;;;;;;;;;;;;;;;;;;;;
2007;[16462] JANASI V. A. (2007);samp. OU-01A;;PARANA / NORTHERN PARANA PROVINCE / SERRA GERAL FORMATION;PIRAJU-OURINHOS REGION, SAO PAULO;-23;-49;-23.3;-50;;;OUTCROP;;;SUBAERIAL;VOLCANIC ROCK;TRACHYDACITE;;LAVA FLOW, GLASSY GRAY;;;CRETACEOUS;LOWER;;;;MINERAL / COMPONENT (INCL. GROUNDMASS);PLAGIOCLASE;;PHENOCRYST;CORE;PRIMARY;;;;;;;;56.83;0.06;;;25.75;;;;;;;;;;;0.67;;8.99;0.09;0;;;;;;;0.71;EMP (EPMA);;;5.9;;;;;;;;;;;;;;;;;;;;;;;;;;;;;;;;;;;;;;;;;;;;;;;;;;;;;;;;;;;;;;;;;;;;;;;;;;;;;;;;;;;;;;;;;;;;;;;;;;;;;;;;;;;;;;;;;;;;;;;;;;;;;;;;;;;;;;;;;;;;;;;;;;;;;;;;;;;;;;;;;;;;;;;;;;;;;;;;;;;;;;;;;;;;;52.1;43.8;;;;;;4.1;;;;;;;;;;;;;;;;;;;;;;;;;
2007;[16462] JANASI V. A. (2007);samp. OU-01A;;PARANA / NORTHERN PARANA PROVINCE / SERRA GERAL FORMATION;PIRAJU-OURINHOS REGION, SAO PAULO;-23;-49;-23.3;-50;;;OUTCROP;;;SUBAERIAL;VOLCANIC ROCK;TRACHYDACITE;;LAVA FLOW, GLASSY GRAY;;;CRETACEOUS;LOWER;;;;MINERAL / COMPONENT (INCL. GROUNDMASS);PLAGIOCLASE;;PHENOCRYST;RIM;PRIMARY;;;;;;;;57.88;0.16;;;25.66;;;;;;;;;;;0.7;;8.1;0.04;0;;;;;;;0.71;EMP (EPMA);;;6.22;;;;;;;;;;;;;;;;;;;;;;;;;;;;;;;;;;;;;;;;;;;;;;;;;;;;;;;;;;;;;;;;;;;;;;;;;;;;;;;;;;;;;;;;;;;;;;;;;;;;;;;;;;;;;;;;;;;;;;;;;;;;;;;;;;;;;;;;;;;;;;;;;;;;;;;;;;;;;;;;;;;;;;;;;;;;;;;;;;;;;;;;;;;;;55.7;40.1;;;;;;4.2;;;;;;;;;;;;;;;;;;;;;;;;;
2007;[16462] JANASI V. A. (2007);samp. OU-02;;PARANA / NORTHERN PARANA PROVINCE / SERRA GERAL FORMATION;PIRAJU-OURINHOS REGION, SAO PAULO;-23;-49;-23.3;-50;;;OUTCROP;;;SUBAERIAL;VOLCANIC ROCK;TRACHYDACITE;;LAVA FLOW, GLASSY GRAY;;;CRETACEOUS;LOWER;;;;MINERAL / COMPONENT (INCL. GROUNDMASS);PLAGIOCLASE;;PHENOCRYST;RIM;PRIMARY;;;;;;;;57.71;0.04;;;26.15;;;;;;;;;;;0.67;;9.32;0.06;0;;;;;;;0.69;EMP (EPMA);;;5.39;;;;;;;;;;;;;;;;;;;;;;;;;;;;;;;;;;;;;;;;;;;;;;;;;;;;;;;;;;;;;;;;;;;;;;;;;;;;;;;;;;;;;;;;;;;;;;;;;;;;;;;;;;;;;;;;;;;;;;;;;;;;;;;;;;;;;;;;;;;;;;;;;;;;;;;;;;;;;;;;;;;;;;;;;;;;;;;;;;;;;;;;;;;;;49;46.8;;;;;;4.1;;;;;;;;;;;;;;;;;;;;;;;;;
2007;[16462] JANASI V. A. (2007);samp. OU-02;;PARANA / NORTHERN PARANA PROVINCE / SERRA GERAL FORMATION;PIRAJU-OURINHOS REGION, SAO PAULO;-23;-49;-23.3;-50;;;OUTCROP;;;SUBAERIAL;VOLCANIC ROCK;TRACHYDACITE;;LAVA FLOW, GLASSY GRAY;;;CRETACEOUS;LOWER;;;;MINERAL / COMPONENT (INCL. GROUNDMASS);PLAGIOCLASE;;PHENOCRYST;CORE;PRIMARY;;;;;;;;56.59;0.08;;;26.6;;;;;;;;;;;0.66;;8.25;0.07;0;;;;;;;0.73;EMP (EPMA);;;6.09;;;;;;;;;;;;;;;;;;;;;;;;;;;;;;;;;;;;;;;;;;;;;;;;;;;;;;;;;;;;;;;;;;;;;;;;;;;;;;;;;;;;;;;;;;;;;;;;;;;;;;;;;;;;;;;;;;;;;;;;;;;;;;;;;;;;;;;;;;;;;;;;;;;;;;;;;;;;;;;;;;;;;;;;;;;;;;;;;;;;;;;;;;;;;54.7;41;;;;;;4.3;;;;;;;;;;;;;;;;;;;;;;;;;
2007;[16462] JANASI V. A. (2007);samp. OU-02;;PARANA / NORTHERN PARANA PROVINCE / SERRA GERAL FORMATION;PIRAJU-OURINHOS REGION, SAO PAULO;-23;-49;-23.3;-50;;;OUTCROP;;;SUBAERIAL;VOLCANIC ROCK;TRACHYDACITE;;LAVA FLOW, GLASSY GRAY;;;CRETACEOUS;LOWER;;;;MINERAL / COMPONENT (INCL. GROUNDMASS);PLAGIOCLASE;;PHENOCRYST;RIM;PRIMARY;;;;;;;;58.07;0.02;;;26.15;;;;;;;;;;;0.72;;8.86;0.06;0;;;;;;;0.75;EMP (EPMA);;;5.7;;;;;;;;;;;;;;;;;;;;;;;;;;;;;;;;;;;;;;;;;;;;;;;;;;;;;;;;;;;;;;;;;;;;;;;;;;;;;;;;;;;;;;;;;;;;;;;;;;;;;;;;;;;;;;;;;;;;;;;;;;;;;;;;;;;;;;;;;;;;;;;;;;;;;;;;;;;;;;;;;;;;;;;;;;;;;;;;;;;;;;;;;;;;;51.4;44.2;;;;;;4.4;;;;;;;;;;;;;;;;;;;;;;;;;
2007;[16462] JANASI V. A. (2007);samp. OU-07;;PARANA / NORTHERN PARANA PROVINCE / SERRA GERAL FORMATION;PIRAJU-OURINHOS REGION, SAO PAULO;-23;-49;-23.3;-50;;;OUTCROP;;;SUBAERIAL;VOLCANIC ROCK;TRACHYDACITE;;LAVA FLOW, GRANULAR;;;CRETACEOUS;LOWER;;;;MINERAL / COMPONENT (INCL. GROUNDMASS);PLAGIOCLASE;;PHENOCRYST;CORE;PRIMARY;;;;;;;;57.1;0.09;;;25.43;;;;;;;;;;;0.62;;8.28;0.07;0;;;;;;;0.76;EMP (EPMA);;;6.02;;;;;;;;;;;;;;;;;;;;;;;;;;;;;;;;;;;;;;;;;;;;;;;;;;;;;;;;;;;;;;;;;;;;;;;;;;;;;;;;;;;;;;;;;;;;;;;;;;;;;;;;;;;;;;;;;;;;;;;;;;;;;;;;;;;;;;;;;;;;;;;;;;;;;;;;;;;;;;;;;;;;;;;;;;;;;;;;;;;;;;;;;;;;;54.3;41.2;;;;;;4.5;;;;;;;;;;;;;;;;;;;;;;;;;
2007;[16462] JANASI V. A. (2007);samp. OU-07;;PARANA / NORTHERN PARANA PROVINCE / SERRA GERAL FORMATION;PIRAJU-OURINHOS REGION, SAO PAULO;-23;-49;-23.3;-50;;;OUTCROP;;;SUBAERIAL;VOLCANIC ROCK;TRACHYDACITE;;LAVA FLOW, GRANULAR;;;CRETACEOUS;LOWER;;;;MINERAL / COMPONENT (INCL. GROUNDMASS);PLAGIOCLASE;;PHENOCRYST;RIM;PRIMARY;;;;;;;;62.67;0.16;;;22.24;;;;;;;;;;;0.41;;4.09;0;0.01;;;;;;;0.97;EMP (EPMA);;;8.52;;;;;;;;;;;;;;;;;;;;;;;;;;;;;;;;;;;;;;;;;;;;;;;;;;;;;;;;;;;;;;;;;;;;;;;;;;;;;;;;;;;;;;;;;;;;;;;;;;;;;;;;;;;;;;;;;;;;;;;;;;;;;;;;;;;;;;;;;;;;;;;;;;;;;;;;;;;;;;;;;;;;;;;;;;;;;;;;;;;;;;;;;;;;;74.6;19.8;;;;;;5.6;;;;;;;;;;;;;;;;;;;;;;;;;
2007;[16462] JANASI V. A. (2007);samp. OU-09;;PARANA / NORTHERN PARANA PROVINCE / SERRA GERAL FORMATION;PIRAJU-OURINHOS REGION, SAO PAULO;-23;-49;-23.3;-50;;;OUTCROP;;;SUBAERIAL;VOLCANIC ROCK;TRACHYDACITE;;LAVA FLOW, GRANULAR;;;CRETACEOUS;LOWER;;;;MINERAL / COMPONENT (INCL. GROUNDMASS);PLAGIOCLASE;;PHENOCRYST;CORE;PRIMARY;;;;;;;;58.38;0.07;;;24.31;;;;;;;;;;;0.63;;7.13;0.02;0;;;;;;;0.63;EMP (EPMA);;;6.7;;;;;;;;;;;;;;;;;;;;;;;;;;;;;;;;;;;;;;;;;;;;;;;;;;;;;;;;;;;;;;;;;;;;;;;;;;;;;;;;;;;;;;;;;;;;;;;;;;;;;;;;;;;;;;;;;;;;;;;;;;;;;;;;;;;;;;;;;;;;;;;;;;;;;;;;;;;;;;;;;;;;;;;;;;;;;;;;;;;;;;;;;;;;;60.6;35.6;;;;;;3.8;;;;;;;;;;;;;;;;;;;;;;;;;
2007;[16462] JANASI V. A. (2007);samp. OU-09;;PARANA / NORTHERN PARANA PROVINCE / SERRA GERAL FORMATION;PIRAJU-OURINHOS REGION, SAO PAULO;-23;-49;-23.3;-50;;;OUTCROP;;;SUBAERIAL;VOLCANIC ROCK;TRACHYDACITE;;LAVA FLOW, GRANULAR;;;CRETACEOUS;LOWER;;;;MINERAL / COMPONENT (INCL. GROUNDMASS);PLAGIOCLASE;;PHENOCRYST;RIM;PRIMARY;;;;;;;;59.19;0.06;;;24.5;;;;;;;;;;;0.49;;6.99;0.01;0.02;;;;;;;0.46;EMP (EPMA);;;6.98;;;;;;;;;;;;;;;;;;;;;;;;;;;;;;;;;;;;;;;;;;;;;;;;;;;;;;;;;;;;;;;;;;;;;;;;;;;;;;;;;;;;;;;;;;;;;;;;;;;;;;;;;;;;;;;;;;;;;;;;;;;;;;;;;;;;;;;;;;;;;;;;;;;;;;;;;;;;;;;;;;;;;;;;;;;;;;;;;;;;;;;;;;;;;62.6;34.7;;;;;;2.7;;;;;;;;;;;;;;;;;;;;;;;;;
2007;[16462] JANASI V. A. (2007);samp. OU-09;;PARANA / NORTHERN PARANA PROVINCE / SERRA GERAL FORMATION;PIRAJU-OURINHOS REGION, SAO PAULO;-23;-49;-23.3;-50;;;OUTCROP;;;SUBAERIAL;VOLCANIC ROCK;TRACHYDACITE;;LAVA FLOW, GRANULAR;;;CRETACEOUS;LOWER;;;;MINERAL / COMPONENT (INCL. GROUNDMASS);PLAGIOCLASE;;MICROPHENOCRYST;CORE;PRIMARY;;;;;;;;59.04;0.07;;;24.54;;;;;;;;;;;0.49;;7.32;0;0.04;;;;;;;0.55;EMP (EPMA);;;6.76;;;;;;;;;;;;;;;;;;;;;;;;;;;;;;;;;;;;;;;;;;;;;;;;;;;;;;;;;;;;;;;;;;;;;;;;;;;;;;;;;;;;;;;;;;;;;;;;;;;;;;;;;;;;;;;;;;;;;;;;;;;;;;;;;;;;;;;;;;;;;;;;;;;;;;;;;;;;;;;;;;;;;;;;;;;;;;;;;;;;;;;;;;;;;60.5;36.2;;;;;;3.2;;;;;;;;;;;;;;;;;;;;;;;;;
2007;[16462] JANASI V. A. (2007);samp. OU-14;;PARANA / NORTHERN PARANA PROVINCE / SERRA GERAL FORMATION;PIRAJU-OURINHOS REGION, SAO PAULO;-23;-49;-23.3;-50;;;OUTCROP;;;SUBAERIAL;VOLCANIC ROCK;TRACHYDACITE;;LAVA FLOW, CHOCOLATE BROWN;;;CRETACEOUS;LOWER;;;;MINERAL / COMPONENT (INCL. GROUNDMASS);PLAGIOCLASE;;MICROPHENOCRYST;CORE;PRIMARY;;;;;;;;58.17;0.04;;;25.75;;;;;;;;;;;0.63;;7.7;0.05;0;;;;;;;0.83;EMP (EPMA);;;6.45;;;;;;;;;;;;;;;;;;;;;;;;;;;;;;;;;;;;;;;;;;;;;;;;;;;;;;;;;;;;;;;;;;;;;;;;;;;;;;;;;;;;;;;;;;;;;;;;;;;;;;;;;;;;;;;;;;;;;;;;;;;;;;;;;;;;;;;;;;;;;;;;;;;;;;;;;;;;;;;;;;;;;;;;;;;;;;;;;;;;;;;;;;;;;57.3;37.8;;;;;;4.9;;;;;;;;;;;;;;;;;;;;;;;;;
2007;[16462] JANASI V. A. (2007);samp. OU-14;;PARANA / NORTHERN PARANA PROVINCE / SERRA GERAL FORMATION;PIRAJU-OURINHOS REGION, SAO PAULO;-23;-49;-23.3;-50;;;OUTCROP;;;SUBAERIAL;VOLCANIC ROCK;TRACHYDACITE;;LAVA FLOW, CHOCOLATE BROWN;;;CRETACEOUS;LOWER;;;;MINERAL / COMPONENT (INCL. GROUNDMASS);PLAGIOCLASE;;PHENOCRYST;CORE;PRIMARY;;;;;;;;56.47;0.06;;;25.44;;;;;;;;;;;0.73;;8.82;0.08;0;;;;;;;0.78;EMP (EPMA);;;5.84;;;;;;;;;;;;;;;;;;;;;;;;;;;;;;;;;;;;;;;;;;;;;;;;;;;;;;;;;;;;;;;;;;;;;;;;;;;;;;;;;;;;;;;;;;;;;;;;;;;;;;;;;;;;;;;;;;;;;;;;;;;;;;;;;;;;;;;;;;;;;;;;;;;;;;;;;;;;;;;;;;;;;;;;;;;;;;;;;;;;;;;;;;;;;52;43.4;;;;;;4.6;;;;;;;;;;;;;;;;;;;;;;;;;
2007;[16462] JANASI V. A. (2007);samp. OU-14;;PARANA / NORTHERN PARANA PROVINCE / SERRA GERAL FORMATION;PIRAJU-OURINHOS REGION, SAO PAULO;-23;-49;-23.3;-50;;;OUTCROP;;;SUBAERIAL;VOLCANIC ROCK;TRACHYDACITE;;LAVA FLOW, CHOCOLATE BROWN;;;CRETACEOUS;LOWER;;;;MINERAL / COMPONENT (INCL. GROUNDMASS);PLAGIOCLASE;;PHENOCRYST;RIM;PRIMARY;;;;;;;;56.11;0.04;;;26.01;;;;;;;;;;;0.67;;9.18;0.07;0.01;;;;;;;0.72;EMP (EPMA);;;5.75;;;;;;;;;;;;;;;;;;;;;;;;;;;;;;;;;;;;;;;;;;;;;;;;;;;;;;;;;;;;;;;;;;;;;;;;;;;;;;;;;;;;;;;;;;;;;;;;;;;;;;;;;;;;;;;;;;;;;;;;;;;;;;;;;;;;;;;;;;;;;;;;;;;;;;;;;;;;;;;;;;;;;;;;;;;;;;;;;;;;;;;;;;;;;50.9;44.9;;;;;;4.2;;;;;;;;;;;;;;;;;;;;;;;;;
2007;[16462] JANASI V. A. (2007);samp. OU-01A;;PARANA / NORTHERN PARANA PROVINCE / SERRA GERAL FORMATION;PIRAJU-OURINHOS REGION, SAO PAULO;-23;-49;-23.3;-50;;;OUTCROP;;;SUBAERIAL;VOLCANIC ROCK;TRACHYDACITE;;LAVA FLOW, GLASSY GRAY;;;CRETACEOUS;LOWER;;;;MINERAL / COMPONENT (INCL. GROUNDMASS);(AL)KALIFELDSPAR;;;RIM;PRIMARY;;;;;;;;65.94;0.11;;;19.19;;;;;;;;;;;0.33;;1.15;0;0.05;;;;;;;5.91;EMP (EPMA);;;6.22;;;;;;;;;;;;;;;;;;;;;;;;;;;;;;;;;;;;;;;;;;;;;;;;;;;;;;;;;;;;;;;;;;;;;;;;;;;;;;;;;;;;;;;;;;;;;;;;;;;;;;;;;;;;;;;;;;;;;;;;;;;;;;;;;;;;;;;;;;;;;;;;;;;;;;;;;;;;;;;;;;;;;;;;;;;;;;;;;;;;;;;;;;;;;57.9;5.9;;;;;;36.2;;;;;;;;;;;;;;;;;;;;;;;;;
2007;[16462] JANASI V. A. (2007);samp. OU-01A;;PARANA / NORTHERN PARANA PROVINCE / SERRA GERAL FORMATION;PIRAJU-OURINHOS REGION, SAO PAULO;-23;-49;-23.3;-50;;;OUTCROP;;;SUBAERIAL;VOLCANIC ROCK;TRACHYDACITE;;LAVA FLOW, GLASSY GRAY;;;CRETACEOUS;LOWER;;;;MINERAL / COMPONENT (INCL. GROUNDMASS);(AL)KALIFELDSPAR;;;RIM;PRIMARY;;;;;;;;65.14;0.12;;;19.23;;;;;;;;;;;0.33;;0.94;0;0.01;;;;;;;7.19;EMP (EPMA);;;5.65;;;;;;;;;;;;;;;;;;;;;;;;;;;;;;;;;;;;;;;;;;;;;;;;;;;;;;;;;;;;;;;;;;;;;;;;;;;;;;;;;;;;;;;;;;;;;;;;;;;;;;;;;;;;;;;;;;;;;;;;;;;;;;;;;;;;;;;;;;;;;;;;;;;;;;;;;;;;;;;;;;;;;;;;;;;;;;;;;;;;;;;;;;;;;51.8;4.8;;;;;;43.4;;;;;;;;;;;;;;;;;;;;;;;;;
2007;[16462] JANASI V. A. (2007);samp. OU-02;;PARANA / NORTHERN PARANA PROVINCE / SERRA GERAL FORMATION;PIRAJU-OURINHOS REGION, SAO PAULO;-23;-49;-23.3;-50;;;OUTCROP;;;SUBAERIAL;VOLCANIC ROCK;TRACHYDACITE;;LAVA FLOW, GLASSY GRAY;;;CRETACEOUS;LOWER;;;;MINERAL / COMPONENT (INCL. GROUNDMASS);(AL)KALIFELDSPAR;;;CORE;PRIMARY;;;;;;;;64.72;0.09;;;19.68;;;;;;;;;;;0.74;;1.65;0.07;0;;;;;;;4.58;EMP (EPMA);;;7.03;;;;;;;;;;;;;;;;;;;;;;;;;;;;;;;;;;;;;;;;;;;;;;;;;;;;;;;;;;;;;;;;;;;;;;;;;;;;;;;;;;;;;;;;;;;;;;;;;;;;;;;;;;;;;;;;;;;;;;;;;;;;;;;;;;;;;;;;;;;;;;;;;;;;;;;;;;;;;;;;;;;;;;;;;;;;;;;;;;;;;;;;;;;;;64.2;8.3;;;;;;27.5;;;;;;;;;;;;;;;;;;;;;;;;;
2007;[16462] JANASI V. A. (2007);samp. OU-02;;PARANA / NORTHERN PARANA PROVINCE / SERRA GERAL FORMATION;PIRAJU-OURINHOS REGION, SAO PAULO;-23;-49;-23.3;-50;;;OUTCROP;;;SUBAERIAL;VOLCANIC ROCK;TRACHYDACITE;;LAVA FLOW, GLASSY GRAY;;;CRETACEOUS;LOWER;;;;MINERAL / COMPONENT (INCL. GROUNDMASS);(AL)KALIFELDSPAR;;MICROPHENOCRYST;;PRIMARY;;;;;;;;67.76;0.12;;;17.64;;;;;;;;;;;0.43;;0.42;0;0;;;;;;;8.67;EMP (EPMA);;;4.4;;;;;;;;;;;;;;;;;;;;;;;;;;;;;;;;;;;;;;;;;;;;;;;;;;;;;;;;;;;;;;;;;;;;;;;;;;;;;;;;;;;;;;;;;;;;;;;;;;;;;;;;;;;;;;;;;;;;;;;;;;;;;;;;;;;;;;;;;;;;;;;;;;;;;;;;;;;;;;;;;;;;;;;;;;;;;;;;;;;;;;;;;;;;;42.6;2.2;;;;;;55.2;;;;;;;;;;;;;;;;;;;;;;;;;