Year;CITATION;SAMPLE NAME;UNIQUE_ID;LOCATION;LOCATION COMMENT;LATITUDE (MIN.);LONGITUDE (MIN.);LATITUDE (MAX.);LONGITUDE (MAX.);ELEVATION (MIN.);ELEVATION (MAX.);SAMPLING TECHNIQUE;DRILLING DEPTH (MIN.);DRILLING DEPTH (MAX.);LAND/SEA (SAMPLING);ROCK TYPE;ROCK NAME;ROCK TEXTURE;SAMPLE COMMENT;AGE (MIN.);AGE (MAX.);GEOLOGICAL AGE;GEOLOGICAL AGE PREFIX;ERUPTION YEAR;ALTERATION;ALTERATION TYPE;TYPE OF MATERIAL;MINERAL / COMPONENT;SPOT (MINERAL);CRYSTAL;RIM / CORE (MINERAL GRAINS);PRIMARY/SECONDARY;INCLUSION TYPE;SPOT (INCLUSION);MINERAL (INCLUSION);RIM / CORE (INCLUSION);HOSTMINERAL (INCLUSION);HEATING;HEATING TEMPERATURE (?C);SIO2(WT%);TIO2(WT%);ZRO2(WT%);B2O3(WT%);AL2O3(WT%);CR2O3(WT%);LA2O3(WT%);CE2O3(WT%);Y2O3(WT%);V2O3(WT%);NB2O3(WT%);TA2O5(WT%);WO3(WT%);FE2O3T(WT%);FE2O3(WT%);FEOT(WT%);FEO(WT%);CAO(WT%);MGO(WT%);MNO(WT%);BAO(WT%);SRO(WT%);NIO(WT%);ZNO(WT%);CS2O(WT%);RB2O(WT%);K2O(WT%);;;;NA2O(WT%);P2O5(WT%);H2O(WT%);;;;H2OP(WT%);H2OM(WT%);CO2(WT%);C(WT%);F(WT%);CL(WT%);SO2(WT%);SO3(WT%);S(WT%);LOI(WT%);AL(WT%);TI(WT%);FE(WT%);MG(WT%);CA(WT%);K(WT%);NA(WT%);LI(PPM);BE(PPM);B(PPM);C(PPM);F(PPM);NA(PPM);MG(PPM);AL(PPM);P(PPM);S(PPM);CL(PPM);AR40(AT/G);AR40(CCMSTP/G);AR40(MOL/G);AR40(PPB);K(PPM);CA(PPM);SC(PPM);;;;TI(PPM);;;;V(PPM);CR(PPM);MN(PPM);FE(PPM);CO(PPM);NI(PPM);CU(PPM);ZN(PPM);GA(PPM);GE(PPM);AS(PPM);SE(PPM);BR(PPM);RB(PPM): altern. values or methods;;;;SR(PPM): altern. values or methods;;;;Y(PPM): altern. values or methods;;;;ZR(PPM): altern. values or methods;;;;NB(PPM): altern. values or methods;;;;MO(PPM): altern. values or methods;;;;AG(PPM);CD(PPM);IN(PPM);SN(PPM);SB(PPM);TE(PPM);CS(PPM);BA(PPM): altern. values or methods;;;;LA(PPM): altern. values or methods;;;;CE(PPM): altern. values or methods;;;;PR(PPM);ND(PPM): altern. values or methods;;;;SM(PPM): altern. values or methods;;;;EU(PPM);GD(PPM);TB(PPM);DY(PPM);HO(PPM);ER(PPM);TM(PPM);YB(PPM);LU(PPM);HF(PPM);TA(PPM);W(PPM);RE(PPM);AU(PPM);AU(PPB);HG(PPM);HG(PPB);TL(PPM);PB(PPM): altern. values or methods;;;;PB206(PPM);BI(PPM);TH(PPM): altern. values or methods;;;;U(PPM);ND143_ND144;ND143_ND144_INI;EPSILON_ND;EPSILON_ND_INI;SM147_ND144;SR87_SR86;SR87_SR86_INI;EPSILON_SR;EPSILON_SR_INI;RB87_SR86;PB206_PB204;PB206_PB204_INI;PB206_PB207;PB206_PB208;PB207_PB204;PB207_PB204_INI;PB207_PB206;PB208_PB204;PB208_PB204_INI;PB208_PB206;HF176_HF177;HF176_HF177_INI;EPSILON_HF_INI;LU176_HF177;YB176_HF177;AR36_AR39;AR36_AR40;AR37_AR39;AR38_AR39;AR39_AR40;AR40_AR36;AR40_AR39;PB206_U238;PB207_U235;PB208_TH232;TH232_PB204;TH232_U238;U235_PB204;U238_PB204;U238_PB206;D7LI(VS LSVEC);D18O(PER MIL);D18O(VS SMOW);D18O(VS VSMOW);D56FE(VS IRMM-014);D57FE(VS IRMM-014);DD(VS SMOW);ALBITE(MOL%);ANORTHITE(MOL%);CA OLIVINE(MOL%);ENSTATITE(MOL%);FAYALITE(MOL%);FORSTERITE(MOL%);FERROSILITE(MOL%);ORTHOCLASE(MOL%);TEPHROITE(MOL%);ULVOSPINEL(MOL%);WOLLASTONITE(MOL%);AGE(KA): altern. values or methods;;;;AGE(MA): altern. values or methods;;;;;;;;AGE_PB207_PB206(MA);AGE_PB207_U235(MA);AGE_PB206_U238(MA): altern. values or methods;;;;;;AGE_PB208_TH232(MA);
2008;[12739] BADANINA E. V. (2008);samp. O-902;;CENTRAL ASIAN FOLDBELT - MESOZOIC / TRANSBAIKALIA - MESOZOIC / EASTERN TRANSBAIKALIA;KHANGILAY ORE CLUSTER, ORLOVKA MASSIF;51;114.5;51;114.5;;;OUTCROP;;;SUBAERIAL;VOLCANIC ROCK;TRACHYDACITE;;;;;MESOZOIC;;;;;INCLUSION;;;;;;MINERAL INCLUSION;;BIOTITE;;QUARTZ;FALSE;;32.89;0.56;;;15.87;;;;;;0.15;0;0.21;;;13.61;;0.52;16.87;0.33;;;;;;0;6.96;EMP (EPMA);;;0.14;;;;;;;;;;1.23;0.05;;;;;;;;;;;;;;;;;;;;;;;;;;;;;;;;;;;;;;;;;;;;;;;;;;;;;;;;;;;;;;;;;;;;;;;;;;;;;;;;;;;;;;;;;;;;;;;;;;;;;;;;;;;;;;;;;;;;;;;;;;;;;;;;;;;;;;;;;;;;;;;;;;;;;;;;;;;;;;;;;;;;;;;;;;;;;;;;;;;;;;;;;;;;;;;;;;;;;;;;;;;;;;;;;;
2008;[12739] BADANINA E. V. (2008);samp. O-902;;CENTRAL ASIAN FOLDBELT - MESOZOIC / TRANSBAIKALIA - MESOZOIC / EASTERN TRANSBAIKALIA;KHANGILAY ORE CLUSTER, ORLOVKA MASSIF;51;114.5;51;114.5;;;OUTCROP;;;SUBAERIAL;VOLCANIC ROCK;TRACHYDACITE;;;;;MESOZOIC;;;;;INCLUSION;;;;;;MINERAL INCLUSION;;BIOTITE;;QUARTZ;FALSE;;39.38;1.66;;;16.08;;;;;;0;0.11;0.12;;;20.3;;0.09;7.39;0.49;;;;;;0;7.31;EMP (EPMA);;;0.1;;;;;;;;;;0.28;0.05;;;;;;;;;;;;;;;;;;;;;;;;;;;;;;;;;;;;;;;;;;;;;;;;;;;;;;;;;;;;;;;;;;;;;;;;;;;;;;;;;;;;;;;;;;;;;;;;;;;;;;;;;;;;;;;;;;;;;;;;;;;;;;;;;;;;;;;;;;;;;;;;;;;;;;;;;;;;;;;;;;;;;;;;;;;;;;;;;;;;;;;;;;;;;;;;;;;;;;;;;;;;;;;;;;
2008;[12739] BADANINA E. V. (2008);samp. O-902;;CENTRAL ASIAN FOLDBELT - MESOZOIC / TRANSBAIKALIA - MESOZOIC / EASTERN TRANSBAIKALIA;KHANGILAY ORE CLUSTER, ORLOVKA MASSIF;51;114.5;51;114.5;;;OUTCROP;;;SUBAERIAL;VOLCANIC ROCK;TRACHYDACITE;;;;;MESOZOIC;;;;;MINERAL / COMPONENT (INCL. GROUNDMASS);BIOTITE;;;;PRIMARY;;;;;;;;35.79;2.2;;;17.98;;;;;;0;0;0.05;;;21.98;;0.03;8.27;0.55;;;;;;0;8.27;EMP (EPMA);;;0.04;;;;;;;;;;0.33;0.05;;;;;;;;;;;;;;;;;;;;;;;;;;;;;;;;;;;;;;;;;;;;;;;;;;;;;;;;;;;;;;;;;;;;;;;;;;;;;;;;;;;;;;;;;;;;;;;;;;;;;;;;;;;;;;;;;;;;;;;;;;;;;;;;;;;;;;;;;;;;;;;;;;;;;;;;;;;;;;;;;;;;;;;;;;;;;;;;;;;;;;;;;;;;;;;;;;;;;;;;;;;;;;;;;;
2008;[12739] BADANINA E. V. (2008);samp. O-902;;CENTRAL ASIAN FOLDBELT - MESOZOIC / TRANSBAIKALIA - MESOZOIC / EASTERN TRANSBAIKALIA;KHANGILAY ORE CLUSTER, ORLOVKA MASSIF;51;114.5;51;114.5;;;OUTCROP;;;SUBAERIAL;VOLCANIC ROCK;TRACHYDACITE;;;;;MESOZOIC;;;;;MINERAL / COMPONENT (INCL. GROUNDMASS);BIOTITE;;;;PRIMARY;;;;;;;;36.36;2.23;;;18.52;;;;;;0;0;0.05;;;22.36;;0.03;8.3;0.5;;;;;;0.05;8.21;EMP (EPMA);;;0.06;;;;;;;;;;0.25;0.05;;;;;;;;;;;;;;;;;;;;;;;;;;;;;;;;;;;;;;;;;;;;;;;;;;;;;;;;;;;;;;;;;;;;;;;;;;;;;;;;;;;;;;;;;;;;;;;;;;;;;;;;;;;;;;;;;;;;;;;;;;;;;;;;;;;;;;;;;;;;;;;;;;;;;;;;;;;;;;;;;;;;;;;;;;;;;;;;;;;;;;;;;;;;;;;;;;;;;;;;;;;;;;;;;;
2008;[12739] BADANINA E. V. (2008);samp. O-902;;CENTRAL ASIAN FOLDBELT - MESOZOIC / TRANSBAIKALIA - MESOZOIC / EASTERN TRANSBAIKALIA;KHANGILAY ORE CLUSTER, ORLOVKA MASSIF;51;114.5;51;114.5;;;OUTCROP;;;SUBAERIAL;VOLCANIC ROCK;TRACHYDACITE;;;;;MESOZOIC;;;;;MINERAL / COMPONENT (INCL. GROUNDMASS);PHENGITE-MUSCOVITE;;;;PRIMARY;;;;;;;;46.25;0;;;20.42;;;;;;;;;;;6.95;;0;0.17;4.01;;;;;;;11.2;EMP (EPMA);;;0.23;;;;;;;;;;;;;;;;;;;;;;;;;;;;;;;;;;;;;;;;;;;;;;;;;;;;;;;;;;;;;;;;;;;;;;;;;;;;;;;;;;;;;;;;;;;;;;;;;;;;;;;;;;;;;;;;;;;;;;;;;;;;;;;;;;;;;;;;;;;;;;;;;;;;;;;;;;;;;;;;;;;;;;;;;;;;;;;;;;;;;;;;;;;;;;;;;;;;;;;;;;;;;;;;;;;;;;;;;;;;;
2008;[12739] BADANINA E. V. (2008);samp. O-902;;CENTRAL ASIAN FOLDBELT - MESOZOIC / TRANSBAIKALIA - MESOZOIC / EASTERN TRANSBAIKALIA;KHANGILAY ORE CLUSTER, ORLOVKA MASSIF;51;114.5;51;114.5;;;OUTCROP;;;SUBAERIAL;VOLCANIC ROCK;TRACHYDACITE;;;;;MESOZOIC;;;;;MINERAL / COMPONENT (INCL. GROUNDMASS);PHENGITE-MUSCOVITE;;;;PRIMARY;;;;;;;;44.33;0;;;22.12;;;;;;;;;;;10.55;;0;0.16;1.42;;;;;;;10.84;EMP (EPMA);;;0.5;;;;;;;;;;;;;;;;;;;;;;;;;;;;;;;;;;;;;;;;;;;;;;;;;;;;;;;;;;;;;;;;;;;;;;;;;;;;;;;;;;;;;;;;;;;;;;;;;;;;;;;;;;;;;;;;;;;;;;;;;;;;;;;;;;;;;;;;;;;;;;;;;;;;;;;;;;;;;;;;;;;;;;;;;;;;;;;;;;;;;;;;;;;;;;;;;;;;;;;;;;;;;;;;;;;;;;;;;;;;;
2008;[12739] BADANINA E. V. (2008);samp. O-902;;CENTRAL ASIAN FOLDBELT - MESOZOIC / TRANSBAIKALIA - MESOZOIC / EASTERN TRANSBAIKALIA;KHANGILAY ORE CLUSTER, ORLOVKA MASSIF;51;114.5;51;114.5;;;OUTCROP;;;SUBAERIAL;VOLCANIC ROCK;TRACHYDACITE;;;;;MESOZOIC;;;;;INCLUSION;;;;;;MINERAL INCLUSION;;(AL)KALIFELDSPAR;;MELT;FALSE;;65.98;0;;;18.68;;;;;;;0.05;0.11;;;0.04;;0;0.03;0;0;0.03;;;0;0;13.97;EMP (EPMA);;;0.37;0.03;;;;;;;;;;;;;;;;;;;;;;;;;;;;;;;;;;;;;;;;;;;;;;;;;;;;;;;;;;;;;;;;;;;;;;;;;;;;;;;;;;;;;;;;;;;;;;;;;;;;;;;;;;;;;;;;;;;;;;;;;;;;;;;;;;;;;;;;;;;;;;;;;;;;;;;;;;;;;;;;;;;;;;;;;;;;;;;;;;;;;;;;;;;;;;;;;;;;;;;;;;;;;;;;;;;;;;;;;;;;
2008;[12739] BADANINA E. V. (2008);samp. O-902;;CENTRAL ASIAN FOLDBELT - MESOZOIC / TRANSBAIKALIA - MESOZOIC / EASTERN TRANSBAIKALIA;KHANGILAY ORE CLUSTER, ORLOVKA MASSIF;51;114.5;51;114.5;;;OUTCROP;;;SUBAERIAL;VOLCANIC ROCK;TRACHYDACITE;;;;;MESOZOIC;;;;;INCLUSION;;;;;;MINERAL INCLUSION;;(AL)KALIFELDSPAR;;QUARTZ;FALSE;;68.52;0;;;18.58;;;;;;;0.08;0.02;;;0.07;;0;0.09;0.03;0;0;;;0;0.03;11.73;EMP (EPMA);;;0.23;0;;;;;;;;;;;;;;;;;;;;;;;;;;;;;;;;;;;;;;;;;;;;;;;;;;;;;;;;;;;;;;;;;;;;;;;;;;;;;;;;;;;;;;;;;;;;;;;;;;;;;;;;;;;;;;;;;;;;;;;;;;;;;;;;;;;;;;;;;;;;;;;;;;;;;;;;;;;;;;;;;;;;;;;;;;;;;;;;;;;;;;;;;;;;;;;;;;;;;;;;;;;;;;;;;;;;;;;;;;;;
2008;[12739] BADANINA E. V. (2008);samp. O-902;;CENTRAL ASIAN FOLDBELT - MESOZOIC / TRANSBAIKALIA - MESOZOIC / EASTERN TRANSBAIKALIA;KHANGILAY ORE CLUSTER, ORLOVKA MASSIF;51;114.5;51;114.5;;;OUTCROP;;;SUBAERIAL;VOLCANIC ROCK;TRACHYDACITE;;;;;MESOZOIC;;;;;MINERAL / COMPONENT (INCL. GROUNDMASS);(AL)KALIFELDSPAR;;;;PRIMARY;;;;;;;;65.47;0;;;18.82;;;;;;;;;;;0.05;;0;0.03;0;0.12;0;;;0.05;0;15.7;EMP (EPMA);;;0.38;0;;;;;;;;;;;;;;;;;;;;;;;;;;;;;;;;;;;;;;;;;;;;;;;;;;;;;;;;;;;;;;;;;;;;;;;;;;;;;;;;;;;;;;;;;;;;;;;;;;;;;;;;;;;;;;;;;;;;;;;;;;;;;;;;;;;;;;;;;;;;;;;;;;;;;;;;;;;;;;;;;;;;;;;;;;;;;;;;;;;;;;;;;;;;;;;;;;;;;;;;;;;;;;;;;;;;;;;;;;;;
2008;[12739] BADANINA E. V. (2008);samp. O-902;;CENTRAL ASIAN FOLDBELT - MESOZOIC / TRANSBAIKALIA - MESOZOIC / EASTERN TRANSBAIKALIA;KHANGILAY ORE CLUSTER, ORLOVKA MASSIF;51;114.5;51;114.5;;;OUTCROP;;;SUBAERIAL;VOLCANIC ROCK;TRACHYDACITE;;;;;MESOZOIC;;;;;INCLUSION;;;;;;MINERAL INCLUSION;;ALBITE;;MELT;FALSE;;70.52;0;;;20.35;;;;;;;;;;;0.04;;0.46;0;0.03;0.06;0;;;0;;0.23;EMP (EPMA);;;11.27;0.02;;;;;;;;;;;;;;;;;;;;;;;;;;;;;;;;;;;;;;;;;;;;;;;;;;;;;;;;;;;;;;;;;;;;;;;;;;;;;;;;;;;;;;;;;;;;;;;;;;;;;;;;;;;;;;;;;;;;;;;;;;;;;;;;;;;;;;;;;;;;;;;;;;;;;;;;;;;;;;;;;;;;;;;;;;;;;;;;;;;;;;;;;;;;;;;;;;;;;;;;;;;;;;;;;;;;;;;;;;;;
2008;[12739] BADANINA E. V. (2008);samp. O-902;;CENTRAL ASIAN FOLDBELT - MESOZOIC / TRANSBAIKALIA - MESOZOIC / EASTERN TRANSBAIKALIA;KHANGILAY ORE CLUSTER, ORLOVKA MASSIF;51;114.5;51;114.5;;;OUTCROP;;;SUBAERIAL;VOLCANIC ROCK;TRACHYDACITE;;;;;MESOZOIC;;;;;MINERAL / COMPONENT (INCL. GROUNDMASS);ALBITE;;;;PRIMARY;;;;;;;;69.25;0.04;;;20.39;;;;;;;;;;;0.04;;0.56;0.02;0;0;0;;;0.04;;0.52;EMP (EPMA);;;11.51;0;;;;;;;;;;;;;;;;;;;;;;;;;;;;;;;;;;;;;;;;;;;;;;;;;;;;;;;;;;;;;;;;;;;;;;;;;;;;;;;;;;;;;;;;;;;;;;;;;;;;;;;;;;;;;;;;;;;;;;;;;;;;;;;;;;;;;;;;;;;;;;;;;;;;;;;;;;;;;;;;;;;;;;;;;;;;;;;;;;;;;;;;;;;;;;;;;;;;;;;;;;;;;;;;;;;;;;;;;;;;
2008;[12761] OMRANI J.(2008)  [GeoReM [4218] ];samp. SK05;;ANATOLIA-IRAN BELT / IRAN / SANANDAJ-SIRJAN ARC;N KANGAVAR;34.618;47.949;34.618;47.949;;;OUTCROP;;;SUBAERIAL;VOLCANIC ROCK;TRACHYDACITE;;;;;JURASSIC;;;;;WHOLE ROCK;;;;;;;;;;;;;68.37;0.52;;;15.43;;;;;;;;;;1.39;;2.92;0.51;0.96;0.08;;;;;;;2.23;ICPAES;;;5.26;0.18;;;;;;;;;;;;;;1.84;;;;;;;;;;;;;;;;;;;;;;;;;9;ICPMS;;;;;;;48;22;;;8;16;4;75;;;;;;81.9;ICPMS;;;65;ICPMS;;;53;ICPMS;;;465;ICPMS;;;19.83;ICPMS;;;;;;;;;;5.91;1.25;;5.63;225;ICPMS;;;37.84;ICPMS;;;78.2;ICPMS;;;9.15;35.02;ICPMS;;;7.74;ICPMS;;;1.44;7.37;1.25;8.48;1.91;5.4;0.9;6.06;0.96;10.7;1.53;;;;;;;;10.08;ICPMS;;;;;11.47;ICPMS;;;3.14;0.512802;;;;;0.710717;;;;;;;;;;;;;;;;;;;;;;;;;;;;;;;;;;;;;;;;;;;;;;;;;;;;;;;;;;;;;;;;;;;;;;;;;;
2008;[12761] OMRANI J.(2008)  [GeoReM [4218] ];samp. Q02B;;ANATOLIA-IRAN BELT / IRAN / URUMIEH-DOKHTAR ARC;SW QOM;34.484;50.375;34.484;50.375;;;OUTCROP;;;SUBAERIAL;VOLCANIC ROCK;TRACHYDACITE;;;;;NEOGENE;;;;;WHOLE ROCK;;;;;;;;;;;;;50.5;1.26;;;17.25;;;;;;;;;;3.2;;6.72;9.41;4.74;0.12;;;;;;;0.2;ICPAES;;;2.87;0.22;;;;;;;;;;;;;;1.44;;;;;;;;;;;;;;;;;;;;;;;;;31;ICPMS;;;;;;;267;37;;;28;26;100;58;;;;;;1.5;ICPMS;;;330;ICPMS;;;27;ICPMS;;;86;ICPMS;;;3.08;ICPMS;;;1.44;ICPMS;;;;;;1.34;0.23;;0.08;199;ICPMS;;;13.25;ICPMS;;;27.24;ICPMS;;;3.52;15.48;ICPMS;;;4.17;ICPMS;;;1.21;4.13;0.69;4.55;0.99;2.59;0.37;2.37;0.38;2.72;0.23;0.99;;;;;;;6.92;ICPMS;;;;;3.8;ICPMS;;;0.99;;;;;;;;;;;;;;;;;;;;;;;;;;;;;;;;;;;;;;;;;;;;;;;;;;;;;;;;;;;;;;;;;;;;;;;;;;;;;;;;
2008;[12806] ARPA M. C. B. (2008);samp. BH01-01-P2;;LUZON ARC / LUZON ARC / LUZON / SOUTHWEST LUZON VOLCANIC FIELD;DILIMAN TUFF, N OF TAAL CALDERA AREA AND NW OF LAGUNA CALDERA;14.03;121.0475;14.03;121.0475;;;OUTCROP;;;SUBAERIAL;VOLCANIC ROCK;TRACHYDACITE;;;;;;;;;;WHOLE ROCK;;;;;;;;;;;;;65.79;0.55;;;18.42;;;;;;;;;6.2;;;;2.62;3.53;0.21;;;;;;;1.8;XRF;;;0.81;0.06;;;;;;;;;;;;;;;;;;;;;;;;;;;;;;;;;;;;;;;;;;;;;;;69.72;2.79;;;;;;;;;;;;57;XRF;;;265;XRF;;;11.18;ICPMS_LA;;;354;XRF;;;10.26;ICPMS_LA;;;;;;;;;;;;;;584.13;ICPMS_LA;;;19.77;ICPMS_LA;;;48.57;ICPMS_LA;;;5.27;19.53;ICPMS_LA;;;4.52;ICPMS_LA;;;1.06;3.51;0.52;2.33;0.44;1.38;;1.82;0.24;10.34;1.08;;;;;;;;13.68;ICPMS_LA;;;;;28.17;ICPMS_LA;;;1.78;;;;;;;;;;;;;;;;;;;;;;;;;;;;;;;;;;;;;;;;;;;;;;;;;;;;;;;;;;;;;;;;;;;;;;;;;;;;;;;;
2008;[12806] ARPA M. C. B. (2008);samp. BH07-03-P1;;LUZON ARC / LUZON ARC / LUZON / SOUTHWEST LUZON VOLCANIC FIELD;DILIMAN TUFF, N OF TAAL CALDERA AREA AND NW OF LAGUNA CALDERA;14.03;121.0475;14.03;121.0475;;;OUTCROP;;;SUBAERIAL;VOLCANIC ROCK;TRACHYDACITE;;;;;;;;;;WHOLE ROCK;;;;;;;;;;;;;63.25;0.88;;;16.39;;;;;;;;;5.93;;;;3.79;1.94;0.26;;;;;;;3.42;XRF;;;3.83;0.32;;;;;;;;;;;;;;;;;;;;;;;;;;;;;;;;;;;;;;;;;;;;;;;77.87;3.38;;;;;;;;;;;;89;XRF;;;417;XRF;;;33.71;ICPMS_LA;;;206;XRF;;;10.55;ICPMS_LA;;;;;;;;;;;;;;1042.46;ICPMS_LA;;;32.55;ICPMS_LA;;;70.56;ICPMS_LA;;;8.15;32.99;ICPMS_LA;;;7;ICPMS_LA;;;1.81;6.35;0.94;5.36;1.05;3;;3.36;0.48;5.61;0.53;;;;;;;;21.99;ICPMS_LA;;;;;14.34;ICPMS_LA;;;3.02;;;;;;;;;;;;;;;;;;;;;;;;;;;;;;;;;;;;;;;;;;;;;;;;;;;;;;;;;;;;;;;;;;;;;;;;;;;;;;;;
2008;[12806] ARPA M. C. B. (2008);samp. BH07-03-P2;;LUZON ARC / LUZON ARC / LUZON / SOUTHWEST LUZON VOLCANIC FIELD;DILIMAN TUFF, N OF TAAL CALDERA AREA AND NW OF LAGUNA CALDERA;14.03;121.0475;14.03;121.0475;;;OUTCROP;;;SUBAERIAL;VOLCANIC ROCK;TRACHYDACITE;;;;;;;;;;WHOLE ROCK;;;;;;;;;;;;;64.53;0.81;;;16.63;;;;;;;;;5.36;;;;2.96;1.55;0.2;;;;;;;3.92;XRF;;;3.79;0.26;;;;;;;;;;;;;;;;;;;;;;;;;;;;;;;;;;;;;;;;;;;;;;;82.34;3.48;;;;;;;;;;;;98;XRF;;;382;XRF;;;34.21;ICPMS_LA;;;220;XRF;;;12.21;ICPMS_LA;;;;;;;;;;;;;;1121.07;ICPMS_LA;;;37.11;ICPMS_LA;;;79.24;ICPMS_LA;;;9.31;36.99;ICPMS_LA;;;8.67;ICPMS_LA;;;2.23;7.44;1.14;6;1.19;3.93;;4.91;0.7;6.64;0.86;;;;;;;;26.48;ICPMS_LA;;;;;15.95;ICPMS_LA;;;3.75;;;;;;;;;;;;;;;;;;;;;;;;;;;;;;;;;;;;;;;;;;;;;;;;;;;;;;;;;;;;;;;;;;;;;;;;;;;;;;;;
2008;[12806] ARPA M. C. B. (2008);samp. BH16-(4-5)-A;;LUZON ARC / LUZON ARC / LUZON / SOUTHWEST LUZON VOLCANIC FIELD;DILIMAN TUFF, N OF TAAL CALDERA AREA AND NW OF LAGUNA CALDERA;14.03;121.0475;14.03;121.0475;;;OUTCROP;;;SUBAERIAL;VOLCANIC ROCK;TRACHYDACITE;;;;;;;;;;WHOLE ROCK;;;;;;;;;;;;;64.48;0.84;;;16.62;;;;;;;;;5.75;;;;3.06;1.25;0.21;;;;;;;3.77;XRF;;;3.73;0.3;;;;;;;;;;;;;;;;;;;;;;;;;;;;;;;;;;;;;;;;;;;;;;;70.75;0;;;;;;;;;;;;105;XRF;;;408;XRF;;;33.91;ICPMS_LA;;;212;XRF;;;12.6;ICPMS_LA;;;;;;;;;;;;;;1138.8;ICPMS_LA;;;37.58;ICPMS_LA;;;79.03;ICPMS_LA;;;9.32;37.01;ICPMS_LA;;;7.89;ICPMS_LA;;;2.22;7.06;1.06;5.74;1.19;3.44;;3.79;0.54;5.04;0.68;;;;;;;;26.24;ICPMS_LA;;;;;14.4;ICPMS_LA;;;4.52;;;;;;;;;;;;;;;;;;;;;;;;;;;;;;;;;;;;;;;;;;;;;;;;;;;;;;;;;;;;;;;;;;;;;;;;;;;;;;;;
2008;[12806] ARPA M. C. B. (2008);samp. BH16-(4-5)-E;;LUZON ARC / LUZON ARC / LUZON / SOUTHWEST LUZON VOLCANIC FIELD;DILIMAN TUFF, N OF TAAL CALDERA AREA AND NW OF LAGUNA CALDERA;14.03;121.0475;14.03;121.0475;;;OUTCROP;;;SUBAERIAL;VOLCANIC ROCK;TRACHYDACITE;;;;;;;;;;WHOLE ROCK;;;;;;;;;;;;;63.35;0.86;;;16.31;;;;;;;;;5.97;;;;3.68;1.56;0.2;;;;;;;3.57;XRF;;;4.16;0.35;;;;;;;;;;;;;;;;;;;;;;;;;;;;;;;;;;;;;;;;;;;;;;;124.62;10.06;;;;;;;;;;;;96;XRF;;;439;XRF;;;22.42;ICPMS_LA;;;194;XRF;;;7.96;ICPMS_LA;;;;;;;;;;;;;;710.78;ICPMS_LA;;;23.31;ICPMS_LA;;;49.18;ICPMS_LA;;;6.08;24.81;ICPMS_LA;;;7.41;ICPMS_LA;;;2;6.25;1;5.2;1.1;3.89;;4.41;0.69;4.71;0.83;;;;;;;;18.82;ICPMS_LA;;;;;9.59;ICPMS_LA;;;3.27;;;;;;;;;;;;;;;;;;;;;;;;;;;;;;;;;;;;;;;;;;;;;;;;;;;;;;;;;;;;;;;;;;;;;;;;;;;;;;;;
2008;[12806] ARPA M. C. B. (2008);samp. 040303-2F;;LUZON ARC / LUZON ARC / LUZON / SOUTHWEST LUZON VOLCANIC FIELD;DILIMAN TUFF, N OF TAAL CALDERA AREA AND NW OF LAGUNA CALDERA;14.03;121.0475;14.03;121.0475;;;OUTCROP;;;SUBAERIAL;VOLCANIC ROCK;TRACHYDACITE;;;;;;;;;;WHOLE ROCK;;;;;;;;;;;;;64.12;0.84;;;16.59;;;;;;;;;5.67;;;;3.02;1.43;0.17;;;;;;;4.21;XRF;;;3.62;0.32;;;;;;;;;;;;;;;;;;;;;;;;;;;;;;;;;;;;;;;;;;;;;;;70.38;3.23;;;;;;;;;;;;99;XRF;;;394;XRF;;;36.94;ICPMS_LA;;;210;XRF;;;11.03;ICPMS_LA;;;;;;;;;;;;;;1101.37;ICPMS_LA;;;37.94;ICPMS_LA;;;76.45;ICPMS_LA;;;9.43;37.79;ICPMS_LA;;;8.1;ICPMS_LA;;;1.93;7.33;1.03;5.73;1.14;3.41;;3.95;0.54;5.8;0.58;;;;;;;;27.09;ICPMS_LA;;;;;16.06;ICPMS_LA;;;3.59;;;;;;;;;;;;;;;;;;;;;;;;;;;;;;;;;;;;;;;;;;;;;;;;;;;;;;;;;;;;;;;;;;;;;;;;;;;;;;;;
2008;[12806] ARPA M. C. B. (2008);samp. 040303-2G;;LUZON ARC / LUZON ARC / LUZON / SOUTHWEST LUZON VOLCANIC FIELD;DILIMAN TUFF, N OF TAAL CALDERA AREA AND NW OF LAGUNA CALDERA;14.03;121.0475;14.03;121.0475;;;OUTCROP;;;SUBAERIAL;VOLCANIC ROCK;TRACHYDACITE;;;;;;;;;;WHOLE ROCK;;;;;;;;;;;;;63.09;0.85;;;16.22;;;;;;;;;5.87;;;;3.68;1.6;0.19;;;;;;;3.61;XRF;;;4.53;0.36;;;;;;;;;;;;;;;;;;;;;;;;;;;;;;;;;;;;;;;;;;;;;;;86.71;3.96;;;;;;;;;;;;95;XRF;;;430;XRF;;;35.48;ICPMS_LA;;;194;XRF;;;11.22;ICPMS_LA;;;;;;;;;;;;;;1054.15;ICPMS_LA;;;35.72;ICPMS_LA;;;74.12;ICPMS_LA;;;9.21;37.34;ICPMS_LA;;;8.98;ICPMS_LA;;;2.28;7.53;1.14;6.28;1.26;4.06;;4.9;0.71;5.7;0.73;;;;;;;;39.39;ICPMS_LA;;;;;13.52;ICPMS_LA;;;3.77;;;;;;;;;;;;;;;;;;;;;;;;;;;;;;;;;;;;;;;;;;;;;;;;;;;;;;;;;;;;;;;;;;;;;;;;;;;;;;;;
2008;[12806] ARPA M. C. B. (2008);samp. 040303-3A;;LUZON ARC / LUZON ARC / LUZON / SOUTHWEST LUZON VOLCANIC FIELD;DILIMAN TUFF, N OF TAAL CALDERA AREA AND NW OF LAGUNA CALDERA;14.03;121.0475;14.03;121.0475;;;OUTCROP;;;SUBAERIAL;VOLCANIC ROCK;TRACHYDACITE;;;;;;;;;;WHOLE ROCK;;;;;;;;;;;;;63.29;0.83;;;16.33;;;;;;;;;5.74;;;;3.62;1.51;0.19;;;;;;;3.76;XRF;;;4.34;0.38;;;;;;;;;;;;;;;;;;;;;;;;;;;;;;;;;;;;;;;;;;;;;;;58.58;3.4;;;;;;;;;;;;105;XRF;;;420;XRF;;;36.44;ICPMS_LA;;;217;XRF;;;11.35;ICPMS_LA;;;;;;;;;;;;;;937.33;ICPMS_LA;;;33.43;ICPMS_LA;;;69.38;ICPMS_LA;;;8.52;34.36;ICPMS_LA;;;7.42;ICPMS_LA;;;1.91;6.8;0.99;5.6;1.12;3.29;;3.82;0.53;5.44;0.54;;;;;;;;23.69;ICPMS_LA;;;;;13.02;ICPMS_LA;;;3.57;;;;;;;;;;;;;;;;;;;;;;;;;;;;;;;;;;;;;;;;;;;;;;;;;;;;;;;;;;;;;;;;;;;;;;;;;;;;;;;;
2008;[12806] ARPA M. C. B. (2008);samp. 040303-3B;;LUZON ARC / LUZON ARC / LUZON / SOUTHWEST LUZON VOLCANIC FIELD;DILIMAN TUFF, N OF TAAL CALDERA AREA AND NW OF LAGUNA CALDERA;14.03;121.0475;14.03;121.0475;;;OUTCROP;;;SUBAERIAL;VOLCANIC ROCK;TRACHYDACITE;;;;;;;;;;WHOLE ROCK;;;;;;;;;;;;;63.33;0.85;;;16.01;;;;;;;;;5.88;;;;3.82;1.53;0.2;;;;;;;3.71;XRF;;;4.24;0.44;;;;;;;;;;;;;;;;;;;;;;;;;;;;;;;;;;;;;;;;;;;;;;;63.89;4.61;;;;;;;;;;;;110;XRF;;;436;XRF;;;37.78;ICPMS_LA;;;217;XRF;;;11.72;ICPMS_LA;;;;;;;;;;;;;;1010.33;ICPMS_LA;;;35.08;ICPMS_LA;;;72.42;ICPMS_LA;;;9.12;37.38;ICPMS_LA;;;9.13;ICPMS_LA;;;2.3;7.92;1.2;6.65;1.34;4.32;;5.1;0.75;6.84;0.77;;;;;;;;27.7;ICPMS_LA;;;;;14.06;ICPMS_LA;;;4.02;;;;;;;;;;;;;;;;;;;;;;;;;;;;;;;;;;;;;;;;;;;;;;;;;;;;;;;;;;;;;;;;;;;;;;;;;;;;;;;;
2008;[12806] ARPA M. C. B. (2008);samp. 040303-2F;;LUZON ARC / LUZON ARC / LUZON / SOUTHWEST LUZON VOLCANIC FIELD;DILIMAN TUFF, N OF TAAL CALDERA AREA AND NW OF LAGUNA CALDERA;14.03;121.0475;14.03;121.0475;;;OUTCROP;;;SUBAERIAL;VOLCANIC ROCK;TRACHYDACITE;;;;;;;;;;MINERAL / COMPONENT (INCL. GROUNDMASS);PLAGIOCLASE;PL1;;;PRIMARY;;;;;;;;58.69;;;;25.89;;;;;;;;;;;0.54;;8.54;;;;;;;;;0.58;EMP (EPMA);;;6.02;;;;;;;;;;;;;;;;;;;;;;;;;;;;;;;;;;;;;;;;;;;;;;;;;;;;;;;;;;;;;;;;;;;;;;;;;;;;;;;;;;;;;;;;;;;;;;;;;;;;;;;;;;;;;;;;;;;;;;;;;;;;;;;;;;;;;;;;;;;;;;;;;;;;;;;;;;;;;;;;;;;;;;;;;;;;;;;;;;;;;;;;;;;;;;42.39;;;;;;;;;;;;;;;;;;;;;;;;;;;;;;;
2008;[12806] ARPA M. C. B. (2008);samp. 040303-3B;;LUZON ARC / LUZON ARC / LUZON / SOUTHWEST LUZON VOLCANIC FIELD;DILIMAN TUFF, N OF TAAL CALDERA AREA AND NW OF LAGUNA CALDERA;14.03;121.0475;14.03;121.0475;;;OUTCROP;;;SUBAERIAL;VOLCANIC ROCK;TRACHYDACITE;;;;;;;;;;MINERAL / COMPONENT (INCL. GROUNDMASS);PLAGIOCLASE;PL1-C;;;PRIMARY;;;;;;;;51.71;;;;29.05;;;;;;;;;;;0.65;;12.46;;;;;;;;;0.29;EMP (EPMA);;;4.25;;;;;;;;;;;;;;;;;;;;;;;;;;;;;;;;;;;;;;;;;;;;;;;;;;;;;;;;;;;;;;;;;;;;;;;;;;;;;;;;;;;;;;;;;;;;;;;;;;;;;;;;;;;;;;;;;;;;;;;;;;;;;;;;;;;;;;;;;;;;;;;;;;;;;;;;;;;;;;;;;;;;;;;;;;;;;;;;;;;;;;;;;;;;;;61.84;;;;;;;;;;;;;;;;;;;;;;;;;;;;;;;