Year;CITATION;SAMPLE NAME;UNIQUE_ID;LOCATION;LOCATION COMMENT;LATITUDE (MIN.);LONGITUDE (MIN.);LATITUDE (MAX.);LONGITUDE (MAX.);ELEVATION (MIN.);ELEVATION (MAX.);SAMPLING TECHNIQUE;DRILLING DEPTH (MIN.);DRILLING DEPTH (MAX.);LAND/SEA (SAMPLING);ROCK TYPE;ROCK NAME;ROCK TEXTURE;SAMPLE COMMENT;AGE (MIN.);AGE (MAX.);GEOLOGICAL AGE;GEOLOGICAL AGE PREFIX;ERUPTION YEAR;ALTERATION;ALTERATION TYPE;TYPE OF MATERIAL;MINERAL / COMPONENT;SPOT (MINERAL);CRYSTAL;RIM / CORE (MINERAL GRAINS);PRIMARY/SECONDARY;INCLUSION TYPE;SPOT (INCLUSION);MINERAL (INCLUSION);RIM / CORE (INCLUSION);HOSTMINERAL (INCLUSION);HEATING;HEATING TEMPERATURE (?C);SIO2(WT%);TIO2(WT%);ZRO2(WT%);B2O3(WT%);AL2O3(WT%);CR2O3(WT%);LA2O3(WT%);CE2O3(WT%);Y2O3(WT%);V2O3(WT%);NB2O3(WT%);TA2O5(WT%);WO3(WT%);FE2O3T(WT%);FE2O3(WT%);FEOT(WT%);FEO(WT%);CAO(WT%);MGO(WT%);MNO(WT%);BAO(WT%);SRO(WT%);NIO(WT%);ZNO(WT%);CS2O(WT%);RB2O(WT%);K2O(WT%);;;;NA2O(WT%);P2O5(WT%);H2O(WT%);;;;H2OP(WT%);H2OM(WT%);CO2(WT%);C(WT%);F(WT%);CL(WT%);SO2(WT%);SO3(WT%);S(WT%);LOI(WT%);AL(WT%);TI(WT%);FE(WT%);MG(WT%);CA(WT%);K(WT%);NA(WT%);LI(PPM);BE(PPM);B(PPM);C(PPM);F(PPM);NA(PPM);MG(PPM);AL(PPM);P(PPM);S(PPM);CL(PPM);AR40(AT/G);AR40(CCMSTP/G);AR40(MOL/G);AR40(PPB);K(PPM);CA(PPM);SC(PPM);;;;TI(PPM);;;;V(PPM);CR(PPM);MN(PPM);FE(PPM);CO(PPM);NI(PPM);CU(PPM);ZN(PPM);GA(PPM);GE(PPM);AS(PPM);SE(PPM);BR(PPM);RB(PPM): altern. values or methods;;;;SR(PPM): altern. values or methods;;;;Y(PPM): altern. values or methods;;;;ZR(PPM): altern. values or methods;;;;NB(PPM): altern. values or methods;;;;MO(PPM): altern. values or methods;;;;AG(PPM);CD(PPM);IN(PPM);SN(PPM);SB(PPM);TE(PPM);CS(PPM);BA(PPM): altern. values or methods;;;;LA(PPM): altern. values or methods;;;;CE(PPM): altern. values or methods;;;;PR(PPM);ND(PPM): altern. values or methods;;;;SM(PPM): altern. values or methods;;;;EU(PPM);GD(PPM);TB(PPM);DY(PPM);HO(PPM);ER(PPM);TM(PPM);YB(PPM);LU(PPM);HF(PPM);TA(PPM);W(PPM);RE(PPM);AU(PPM);AU(PPB);HG(PPM);HG(PPB);TL(PPM);PB(PPM): altern. values or methods;;;;PB206(PPM);BI(PPM);TH(PPM): altern. values or methods;;;;U(PPM);ND143_ND144;ND143_ND144_INI;EPSILON_ND;EPSILON_ND_INI;SM147_ND144;SR87_SR86;SR87_SR86_INI;EPSILON_SR;EPSILON_SR_INI;RB87_SR86;PB206_PB204;PB206_PB204_INI;PB206_PB207;PB206_PB208;PB207_PB204;PB207_PB204_INI;PB207_PB206;PB208_PB204;PB208_PB204_INI;PB208_PB206;HF176_HF177;HF176_HF177_INI;EPSILON_HF_INI;LU176_HF177;YB176_HF177;AR36_AR39;AR36_AR40;AR37_AR39;AR38_AR39;AR39_AR40;AR40_AR36;AR40_AR39;PB206_U238;PB207_U235;PB208_TH232;TH232_PB204;TH232_U238;U235_PB204;U238_PB204;U238_PB206;D7LI(VS LSVEC);D18O(PER MIL);D18O(VS SMOW);D18O(VS VSMOW);D56FE(VS IRMM-014);D57FE(VS IRMM-014);DD(VS SMOW);ALBITE(MOL%);ANORTHITE(MOL%);CA OLIVINE(MOL%);ENSTATITE(MOL%);FAYALITE(MOL%);FORSTERITE(MOL%);FERROSILITE(MOL%);ORTHOCLASE(MOL%);TEPHROITE(MOL%);ULVOSPINEL(MOL%);WOLLASTONITE(MOL%);AGE(KA): altern. values or methods;;;;AGE(MA): altern. values or methods;;;;;;;;AGE_PB207_PB206(MA);AGE_PB207_U235(MA);AGE_PB206_U238(MA): altern. values or methods;;;;;;AGE_PB208_TH232(MA);
2008;[12168] MOLLEL G. F.(2008)  [GeoReM [4034] ];samp. NG2;;EAST AFRICAN RIFT / KENYA RIFT (EASTERN EAST AFRICAN RIFT) / SOUTHERN KENYA RIFT / NGORONGORO CALDERA;LERAI ASCENDING ROAD;-3.15;39.3;-3.15;39.3;1904;1904;OUTCROP;;;SUBAERIAL;VOLCANIC ROCK;TRACHYDACITE;;;;;PLIOCENE;;;;;WHOLE ROCK;;;;;;;;;;;;;63.25;1.29;;;16.43;;;;;;;;;;;5.17;;2.6;0.42;0.11;;;;;;;3.18;XRF;;;5.82;0.36;;;;;;;;;;;;;;1.6;;;;;;;;;;;;;;;;;;;;;;;;;;;;;;;;;9.22;12.68;;;;;;;;;;;;52.4;ICPMS_LA;;;528.2;ICPMS_LA;;;48.34;ICPMS_LA;;;568.6;ICPMS_LA;;;75.1;ICPMS_LA;;;;;;;;;;;;;;843.18;ICPMS_LA;;;133.84;ICPMS_LA;;;157.93;ICPMS_LA;;;28.05;106.98;ICPMS_LA;;;18.24;ICPMS_LA;;;4.46;16.13;2.12;10.83;1.89;4.56;;4.03;0.51;10.42;4.37;;;;;;;;14.82;ICPMS_LA;;;;;10.6;ICPMS_LA;;;2.97;0.51221;;;;;0.70801;;;;;18.73;;;;15.64;;;39.52;;;;;;;;;;;;;;;;;;;;;;;;;;;;;;;;;;;;;;;;;;;;;;;;;;;;;;;;;;;;;;
2008;[12168] MOLLEL G. F.(2008)  [GeoReM [4034] ];samp. NG3;;EAST AFRICAN RIFT / KENYA RIFT (EASTERN EAST AFRICAN RIFT) / SOUTHERN KENYA RIFT / NGORONGORO CALDERA;LERAI ASCENDING ROAD;-3.15;39.3;-3.15;39.3;1923;1923;OUTCROP;;;SUBAERIAL;VOLCANIC ROCK;TRACHYDACITE;;;;;PLIOCENE;;;;;WHOLE ROCK;;;;;;;;;;;;;62.08;1.19;;;14.95;;;;;;;;;;;6.42;;2.83;0.7;0.11;;;;;;;3.48;XRF;;;4.93;0.32;;;;;;;;;;;;;;1.52;;;;;;;;;;;;;;;;;;;;;;;;;;;;;;;;;8.6;10.37;;;;;;;;;;;;55.9;ICPMS_LA;;;417.2;ICPMS_LA;;;37.06;ICPMS_LA;;;563.1;ICPMS_LA;;;73.21;ICPMS_LA;;;;;;;;;;;;;;734;ICPMS_LA;;;73.74;ICPMS_LA;;;132.1;ICPMS_LA;;;16.96;63.53;ICPMS_LA;;;11.4;ICPMS_LA;;;3.04;9.91;1.41;6.86;1.39;3.35;;3.08;0.46;9.51;4.22;;;;;;;;10.78;ICPMS_LA;;;;;10.4;ICPMS_LA;;;2.28;;;;;;;;;;;;;;;;;;;;;;;;;;;;;;;;;;;;;;;;;;;;;;;;;;;;;;;;;;;;;;;;;;;;;;;;;;;;;;;;
2008;[12168] MOLLEL G. F.(2008)  [GeoReM [4034] ];samp. NG2;;EAST AFRICAN RIFT / KENYA RIFT (EASTERN EAST AFRICAN RIFT) / SOUTHERN KENYA RIFT / NGORONGORO CALDERA;LERAI ASCENDING ROAD;-3.15;39.3;-3.15;39.3;1904;1904;OUTCROP;;;SUBAERIAL;VOLCANIC ROCK;TRACHYDACITE;;;;;PLIOCENE;;;;;MINERAL / COMPONENT (INCL. GROUNDMASS);GROUNDMASS;;;;PRIMARY;;;;;;;;;;;;;;;;;;;;;;;;;;;;;;;;;;;;;;;;;;;;;;;;;;;;;;;;;;;;;;;;;;;;;;;;;;;;;;;;;;;;;;;;;;;;;;;;;;;;;;;;;;;;;;;;;;;;;;;;;;;;;;;;;;;;;;;;;;;;;;;;;;;;;;;;;;;;;;;;;;;;;;;;;;;;;;;;;;;;;;;;;;;;;;;;;;;;;;;;;;;;;;;;;;;;;;;;;;;;;;;;;;;;;;;;;;;;;;;;;;2.25;AR-AR;;;;;;;;;;;;;;;;
2008;[12250] ALENICHEVA A. A. (2008);samp. 07;;SIKHOTE-ALIN-SAKHALIN ARC / SIKHOTE ALIN ARC / SIKHOTE-ALIN BELT - MESOZOIC / BOGOPOL COMPLEX;MT. MIR, KAVALEROVO ORE DISTRICT;44.27;135.05;44.27;135.05;;;OUTCROP;;;SUBAERIAL;VOLCANIC ROCK;TRACHYDACITE;;PORPHYRY;;;CRETACEOUS;UPPER;;;;MINERAL / COMPONENT (INCL. GROUNDMASS);ZIRCON;07.11;;;PRIMARY;;;;;;;;;;;;;;;;;;;;;;;;;;;;;;;;;;;;;;;;;;;;;;;;;;;;;;;;;;;;;;;;;;;;;;;;;;;;;;;;;;;;;;;;;;;;;;;;;;;;;;;;;;;;;;;;;;;;;;;;;;;;;;;;;;;;;;;;;;;;;;;;;;;;;;;;;;;;;;;;;;;;;;;;;;;;;;;462;SHRIMP;;;1488;;;;;;;;;;;;;;;;;0.0487;;;;;;;;;;;;;;;;;;;;0.32;;;114;;;;;;;;;;;;;;;;;;;;;;;56.29;UPB206_U238 AGE;;;;;;;;;;;;;;;;
2008;[12250] ALENICHEVA A. A. (2008);samp. 07;;SIKHOTE-ALIN-SAKHALIN ARC / SIKHOTE ALIN ARC / SIKHOTE-ALIN BELT - MESOZOIC / BOGOPOL COMPLEX;MT. MIR, KAVALEROVO ORE DISTRICT;44.27;135.05;44.27;135.05;;;OUTCROP;;;SUBAERIAL;VOLCANIC ROCK;TRACHYDACITE;;PORPHYRY;;;CRETACEOUS;UPPER;;;;MINERAL / COMPONENT (INCL. GROUNDMASS);ZIRCON;07.2.1;;;PRIMARY;;;;;;;;;;;;;;;;;;;;;;;;;;;;;;;;;;;;;;;;;;;;;;;;;;;;;;;;;;;;;;;;;;;;;;;;;;;;;;;;;;;;;;;;;;;;;;;;;;;;;;;;;;;;;;;;;;;;;;;;;;;;;;;;;;;;;;;;;;;;;;;;;;;;;;;;;;;;;;;;;;;;;;;;;;;;;0.71;;52;SHRIMP;;;84;;;;;;;;;;;;;;;;;0.0544;;;;;;;;;;;;;;;;;;;;0.64;;;112.1;;;;;;;;;;;;;;;;;;;;;;;57.2;UPB206_U238 AGE;;;;;;;;;;;;;;;;
2008;[12250] ALENICHEVA A. A. (2008);samp. 07;;SIKHOTE-ALIN-SAKHALIN ARC / SIKHOTE ALIN ARC / SIKHOTE-ALIN BELT - MESOZOIC / BOGOPOL COMPLEX;MT. MIR, KAVALEROVO ORE DISTRICT;44.27;135.05;44.27;135.05;;;OUTCROP;;;SUBAERIAL;VOLCANIC ROCK;TRACHYDACITE;;PORPHYRY;;;CRETACEOUS;UPPER;;;;MINERAL / COMPONENT (INCL. GROUNDMASS);ZIRCON;07.1.2;;;PRIMARY;;;;;;;;;;;;;;;;;;;;;;;;;;;;;;;;;;;;;;;;;;;;;;;;;;;;;;;;;;;;;;;;;;;;;;;;;;;;;;;;;;;;;;;;;;;;;;;;;;;;;;;;;;;;;;;;;;;;;;;;;;;;;;;;;;;;;;;;;;;;;;;;;;;;;;;;;;;;;;;;;;;;;;;;;;;;;2.8;;147;SHRIMP;;;247;;;;;;;;;;;;;;;;;0.033;;;;;;;;;;;;;;;;;;;;0.62;;;113.6;;;;;;;;;;;;;;;;;;;;;;;56.5;UPB206_U238 AGE;;;;;;;;;;;;;;;;
2008;[12250] ALENICHEVA A. A. (2008);samp. 07;;SIKHOTE-ALIN-SAKHALIN ARC / SIKHOTE ALIN ARC / SIKHOTE-ALIN BELT - MESOZOIC / BOGOPOL COMPLEX;MT. MIR, KAVALEROVO ORE DISTRICT;44.27;135.05;44.27;135.05;;;OUTCROP;;;SUBAERIAL;VOLCANIC ROCK;TRACHYDACITE;;PORPHYRY;;;CRETACEOUS;UPPER;;;;MINERAL / COMPONENT (INCL. GROUNDMASS);ZIRCON;07.3.1;;;PRIMARY;;;;;;;;;;;;;;;;;;;;;;;;;;;;;;;;;;;;;;;;;;;;;;;;;;;;;;;;;;;;;;;;;;;;;;;;;;;;;;;;;;;;;;;;;;;;;;;;;;;;;;;;;;;;;;;;;;;;;;;;;;;;;;;;;;;;;;;;;;;;;;;;;;;;;;;;;;;;;;;;;;;;;;;;;;;;;1.55;;131;SHRIMP;;;191;;;;;;;;;;;;;;;;;0.039;;;;;;;;;;;;;;;;;;;;0.71;;;102.1;;;;;;;;;;;;;;;;;;;;;;;62.9;UPB206_U238 AGE;;;;;;;;;;;;;;;;
2008;[12250] ALENICHEVA A. A. (2008);samp. 07;;SIKHOTE-ALIN-SAKHALIN ARC / SIKHOTE ALIN ARC / SIKHOTE-ALIN BELT - MESOZOIC / BOGOPOL COMPLEX;MT. MIR, KAVALEROVO ORE DISTRICT;44.27;135.05;44.27;135.05;;;OUTCROP;;;SUBAERIAL;VOLCANIC ROCK;TRACHYDACITE;;PORPHYRY;;;CRETACEOUS;UPPER;;;;MINERAL / COMPONENT (INCL. GROUNDMASS);ZIRCON;07.4.1;;;PRIMARY;;;;;;;;;;;;;;;;;;;;;;;;;;;;;;;;;;;;;;;;;;;;;;;;;;;;;;;;;;;;;;;;;;;;;;;;;;;;;;;;;;;;;;;;;;;;;;;;;;;;;;;;;;;;;;;;;;;;;;;;;;;;;;;;;;;;;;;;;;;;;;;;;;;;;;;;;;;;;;;;;;;;;;;;;;;;;;;325;SHRIMP;;;1058;;;;;;;;;;;;;;;;;0.052;;;;;;;;;;;;;;;;;;;;0.32;;;123.9;;;;;;;;;;;;;;;;;;;;;;;51.81;UPB206_U238 AGE;;;;;;;;;;;;;;;;
2008;[12250] ALENICHEVA A. A. (2008);samp. 07;;SIKHOTE-ALIN-SAKHALIN ARC / SIKHOTE ALIN ARC / SIKHOTE-ALIN BELT - MESOZOIC / BOGOPOL COMPLEX;MT. MIR, KAVALEROVO ORE DISTRICT;44.27;135.05;44.27;135.05;;;OUTCROP;;;SUBAERIAL;VOLCANIC ROCK;TRACHYDACITE;;PORPHYRY;;;CRETACEOUS;UPPER;;;;MINERAL / COMPONENT (INCL. GROUNDMASS);ZIRCON;07.5.1;;;PRIMARY;;;;;;;;;;;;;;;;;;;;;;;;;;;;;;;;;;;;;;;;;;;;;;;;;;;;;;;;;;;;;;;;;;;;;;;;;;;;;;;;;;;;;;;;;;;;;;;;;;;;;;;;;;;;;;;;;;;;;;;;;;;;;;;;;;;;;;;;;;;;;;;;;;;;;;;;;;;;;;;;;;;;;;;;;;;;;0.6;;119;SHRIMP;;;146;;;;;;;;;;;;;;;;;0.049;;;;;;;;;;;;;;;;;;;;0.85;;;106.9;;;;;;;;;;;;;;;;;;;;;;;60;UPB206_U238 AGE;;;;;;;;;;;;;;;;
2008;[12250] ALENICHEVA A. A. (2008);samp. 07;;SIKHOTE-ALIN-SAKHALIN ARC / SIKHOTE ALIN ARC / SIKHOTE-ALIN BELT - MESOZOIC / BOGOPOL COMPLEX;MT. MIR, KAVALEROVO ORE DISTRICT;44.27;135.05;44.27;135.05;;;OUTCROP;;;SUBAERIAL;VOLCANIC ROCK;TRACHYDACITE;;PORPHYRY;;;CRETACEOUS;UPPER;;;;MINERAL / COMPONENT (INCL. GROUNDMASS);ZIRCON;07.6.1;;;PRIMARY;;;;;;;;;;;;;;;;;;;;;;;;;;;;;;;;;;;;;;;;;;;;;;;;;;;;;;;;;;;;;;;;;;;;;;;;;;;;;;;;;;;;;;;;;;;;;;;;;;;;;;;;;;;;;;;;;;;;;;;;;;;;;;;;;;;;;;;;;;;;;;;;;;;;;;;;;;;;;;;;;;;;;;;;;;;;;;;154;SHRIMP;;;235;;;;;;;;;;;;;;;;;0.059;;;;;;;;;;;;;;;;;;;;0.68;;;112.9;;;;;;;;;;;;;;;;;;;;;;;56.9;UPB206_U238 AGE;;;;;;;;;;;;;;;;
2008;[12250] ALENICHEVA A. A. (2008);samp. 07;;SIKHOTE-ALIN-SAKHALIN ARC / SIKHOTE ALIN ARC / SIKHOTE-ALIN BELT - MESOZOIC / BOGOPOL COMPLEX;MT. MIR, KAVALEROVO ORE DISTRICT;44.27;135.05;44.27;135.05;;;OUTCROP;;;SUBAERIAL;VOLCANIC ROCK;TRACHYDACITE;;PORPHYRY;;;CRETACEOUS;UPPER;;;;MINERAL / COMPONENT (INCL. GROUNDMASS);ZIRCON;07.7.1;;;PRIMARY;;;;;;;;;;;;;;;;;;;;;;;;;;;;;;;;;;;;;;;;;;;;;;;;;;;;;;;;;;;;;;;;;;;;;;;;;;;;;;;;;;;;;;;;;;;;;;;;;;;;;;;;;;;;;;;;;;;;;;;;;;;;;;;;;;;;;;;;;;;;;;;;;;;;;;;;;;;;;;;;;;;;;;;;;;;;;1.94;;328;SHRIMP;;;371;;;;;;;;;;;;;;;;;0.036;;;;;;;;;;;;;;;;;;;;0.91;;;108.3;;;;;;;;;;;;;;;;;;;;;;;59.3;UPB206_U238 AGE;;;;;;;;;;;;;;;;
2008;[12250] ALENICHEVA A. A. (2008);samp. 07;;SIKHOTE-ALIN-SAKHALIN ARC / SIKHOTE ALIN ARC / SIKHOTE-ALIN BELT - MESOZOIC / BOGOPOL COMPLEX;MT. MIR, KAVALEROVO ORE DISTRICT;44.27;135.05;44.27;135.05;;;OUTCROP;;;SUBAERIAL;VOLCANIC ROCK;TRACHYDACITE;;PORPHYRY;;;CRETACEOUS;UPPER;;;;MINERAL / COMPONENT (INCL. GROUNDMASS);ZIRCON;07.7.2;;;PRIMARY;;;;;;;;;;;;;;;;;;;;;;;;;;;;;;;;;;;;;;;;;;;;;;;;;;;;;;;;;;;;;;;;;;;;;;;;;;;;;;;;;;;;;;;;;;;;;;;;;;;;;;;;;;;;;;;;;;;;;;;;;;;;;;;;;;;;;;;;;;;;;;;;;;;;;;;;;;;;;;;;;;;;;;;;;;;;;0.81;;139;SHRIMP;;;233;;;;;;;;;;;;;;;;;0.0484;;;;;;;;;;;;;;;;;;;;0.62;;;109.9;;;;;;;;;;;;;;;;;;;;;;;58.4;UPB206_U238 AGE;;;;;;;;;;;;;;;;
2008;[12250] ALENICHEVA A. A. (2008);samp. 07;;SIKHOTE-ALIN-SAKHALIN ARC / SIKHOTE ALIN ARC / SIKHOTE-ALIN BELT - MESOZOIC / BOGOPOL COMPLEX;MT. MIR, KAVALEROVO ORE DISTRICT;44.27;135.05;44.27;135.05;;;OUTCROP;;;SUBAERIAL;VOLCANIC ROCK;TRACHYDACITE;;PORPHYRY;;;CRETACEOUS;UPPER;;;;MINERAL / COMPONENT (INCL. GROUNDMASS);ZIRCON;07.3.2;;;PRIMARY;;;;;;;;;;;;;;;;;;;;;;;;;;;;;;;;;;;;;;;;;;;;;;;;;;;;;;;;;;;;;;;;;;;;;;;;;;;;;;;;;;;;;;;;;;;;;;;;;;;;;;;;;;;;;;;;;;;;;;;;;;;;;;;;;;;;;;;;;;;;;;;;;;;;;;;;;;;;;;;;;;;;;;;;;;;;;1.81;;110;SHRIMP;;;256;;;;;;;;;;;;;;;;;0.0366;;;;;;;;;;;;;;;;;;;;0.44;;;112.8;;;;;;;;;;;;;;;;;;;;;;;56.9;UPB206_U238 AGE;;;;;;;;;;;;;;;;
2008;[12275] LIU SHEN(2008)  [GeoReM [4420] ];samp. ZGYC-01;;CENTRAL ASIAN FOLDBELT - CENOZOIC/QUATERNARY / CHINA - CENOZOIC/QUATERNARY / TIBET;ZOUGOUYOUCHAC(U)O, QIANGTANG TERRANE;33;85;33;85;;;OUTCROP;;;SUBAERIAL;VOLCANIC ROCK;TRACHYDACITE;PORPHYRITIC;;;;;;;;;WHOLE ROCK;;;;;;;;;;;;;63.99;0.9;;;15.64;;;;;;;;;;;4.29;;3.93;1.92;0.06;;;;;;;3.58;XRF;;;4.37;0.36;;;;;;;;;;;;;;0.64;;;;;;;;;;;;;;;;;;;;;;;;;10;ICPMS;;;;;;;80;50.7;;;;42.8;;;;;;;;120;ICPMS;;;649;ICPMS;;;15;ICPMS;;;336;ICPMS;;;20.1;ICPMS;;;;;;;;;;;;;;858;ICPMS;;;71.7;ICPMS;;;128;ICPMS;;;13.4;45.1;ICPMS;;;6.8;ICPMS;;;1.5;4.6;0.6;3;0.5;1.4;0.2;1.2;0.2;9.7;1.2;;;;;;;;24.7;ICPMS;;;;;18.7;ICPMS;;;3;0.512416;;;;0.0874;0.706804;;;;0.9255;19.012;;;;15.923;;;39.583;;;;;;;;;;;;;;;;;;;;;;;;;;;;;;;;;;;;;;;;;;;;;;;;;;;;;;;;;;;;;;
2008;[12275] LIU SHEN(2008)  [GeoReM [4420] ];samp. ZGYC-06;;CENTRAL ASIAN FOLDBELT - CENOZOIC/QUATERNARY / CHINA - CENOZOIC/QUATERNARY / TIBET;ZOUGOUYOUCHAC(U)O, QIANGTANG TERRANE;33;85;33;85;;;OUTCROP;;;SUBAERIAL;VOLCANIC ROCK;TRACHYDACITE;PORPHYRITIC;;;;;;;;;WHOLE ROCK;;;;;;;;;;;;;64.58;0.87;;;15.38;;;;;;;;;;;4.12;;3.64;1.89;0.05;;;;;;;3.61;XRF;;;4.26;0.35;;;;;;;;;;;;;;0.79;;;;;;;;;;;;;;;;;;;;;;;;;10.1;ICPMS;;;;;;;82.6;64.8;;;;54.2;;;;;;;;97.6;ICPMS;;;901;ICPMS;;;10.2;ICPMS;;;284;ICPMS;;;16.5;ICPMS;;;;;;;;;;;;;;753;ICPMS;;;45.7;ICPMS;;;76.1;ICPMS;;;8.5;30.4;ICPMS;;;4.5;ICPMS;;;1.2;3.2;0.4;2.1;0.4;0.9;0.14;0.8;0.14;8.1;0.9;;;;;;;;21.2;ICPMS;;;;;17.3;ICPMS;;;3.8;0.512381;;;;0.0895;0.706624;;;;0.3131;19.059;;;;15.984;;;39.792;;;;;;;;;;;;;;;;;;;;;;;;;;;;;;;;;;;;;;;;;;;;;;;;;;;;;;;;;;;;;;
2008;[12275] LIU SHEN(2008)  [GeoReM [4420] ];samp. ZGYC-10;;CENTRAL ASIAN FOLDBELT - CENOZOIC/QUATERNARY / CHINA - CENOZOIC/QUATERNARY / TIBET;ZOUGOUYOUCHAC(U)O, QIANGTANG TERRANE;33;85;33;85;;;OUTCROP;;;SUBAERIAL;VOLCANIC ROCK;TRACHYDACITE;PORPHYRITIC;;;;;;;;;WHOLE ROCK;;;;;;;;;;;;;66.83;0.49;;;15.26;;;;;;;;;;;3.12;;2.86;1.91;0.06;;;;;;;3.16;XRF;;;4.23;0.17;;;;;;;;;;;;;;1.24;;;;;;;;;;;;;;;;;;;;;;;;;10.4;ICPMS;;;;;;;80.7;57.8;;;;49.2;;;;;;;;88.8;ICPMS;;;944;ICPMS;;;12.2;ICPMS;;;338;ICPMS;;;19.4;ICPMS;;;;;;;;;;;;;;747;ICPMS;;;72.1;ICPMS;;;122;ICPMS;;;13.6;46.9;ICPMS;;;6.7;ICPMS;;;1.6;4.2;0.5;2.6;0.5;1;0.13;0.9;0.14;9.4;1.1;;;;;;;;21.7;ICPMS;;;;;13.9;ICPMS;;;4.6;0.512366;;;;0.0864;0.706589;;;;0.2719;19.021;;;;15.959;;;39.528;;;;;;;;;;;;;;;;;;;;;;;;;;;;;;;;;;;;;;;;;;;;;;;;;;;;;;;;;;;;;;
2008;[12275] LIU SHEN(2008)  [GeoReM [4420] ];samp. DGC-05;;CENTRAL ASIAN FOLDBELT - CENOZOIC/QUATERNARY / CHINA - CENOZOIC/QUATERNARY / TIBET;DOGAI CORING LAKE, QIANGTANG TERRANE;34.5;89;34.5;89;;;OUTCROP;;;SUBAERIAL;VOLCANIC ROCK;TRACHYDACITE;PORPHYRITIC;;;;;;;;;WHOLE ROCK;;;;;;;;;;;;;65.89;0.46;;;15.76;;;;;;;;;;;3.5;;2.73;1.76;0.06;;;;;;;3.08;XRF;;;4.66;0.17;;;;;;;;;;;;;;1.48;;;;;;;;;;;;;;;;;;;;;;;;;10.7;ICPMS;;;;;;;67.5;52.5;;;;45.4;;;;;;;;114;ICPMS;;;986;ICPMS;;;11.4;ICPMS;;;302;ICPMS;;;7.5;ICPMS;;;;;;;;;;;;;;973;ICPMS;;;64.5;ICPMS;;;108;ICPMS;;;11.8;42.2;ICPMS;;;6;ICPMS;;;1.4;3.6;0.5;2.3;0.5;0.8;0.14;0.8;0.13;8.2;0.7;;;;;;;;41.7;ICPMS;;;;;19.6;ICPMS;;;4.4;0.512361;;;;0.0859;0.707693;;;;0.3341;19.068;;;;15.993;;;39.805;;;;;;;;;;;;;;;;;;;;;;;;;;;;;;;;;;;;;;;;;;;;;;;;;;;;;;;;;;;;;;
2007;[12386] MOLLEL G. F. (2007);samp. NG-02;;EAST AFRICAN RIFT / KENYA RIFT (EASTERN EAST AFRICAN RIFT) / SOUTHERN KENYA RIFT / NGORONGORO CALDERA;;-3.15;39.3;-3.15;39.3;1904;1904;OUTCROP;;;SUBAERIAL;VOLCANIC ROCK;TRACHYDACITE;;;;;PLIOCENE;;;;;WHOLE ROCK;;;;;;;;;;;;;63.25;1.29;;;16.43;;;;;;;;;5.17;;;;2.6;0.42;0.11;;;;;;;3.18;XRF;;;5.82;0.36;;;;;;;;;;;;;;;;;;;;;;;;;;;;;;;;;;;;;;;;;;;;;;;9.22;12.68;;;;;;;;;;;;52.4;XRF;;;528.2;XRF;;;48.34;XRF;;;568.6;XRF;;;75.1;XRF;;;;;;;;;;;;;;843.18;XRF;;;133.84;ICPMS_LA;;;157.93;ICPMS_LA;;;28.05;106.98;ICPMS_LA;;;18.24;ICPMS_LA;;;4.46;16.13;2.12;10.83;1.89;4.56;;4.03;0.51;10.42;4.37;;;;;;;;14.82;ICPMS_LA;;;;;10.6;ICPMS_LA;;;2.97;0.51221;;;;;0.70801;;;;;18.73;;;;15.64;;;39.52;;;;;;;;;;;;;;;;;;;;;;;;;;;;;;;;;;;;;;;;;;;;;;;;;;;;;;;;;;;;;;
2007;[12386] MOLLEL G. F. (2007);samp. NG-03;;EAST AFRICAN RIFT / KENYA RIFT (EASTERN EAST AFRICAN RIFT) / SOUTHERN KENYA RIFT / NGORONGORO CALDERA;;-3.15;39.3;-3.15;39.3;1923;1923;OUTCROP;;;SUBAERIAL;VOLCANIC ROCK;TRACHYDACITE;;;;;PLIOCENE;;;;;WHOLE ROCK;;;;;;;;;;;;;62.08;1.19;;;14.95;;;;;;;;;6.42;;;;2.83;0.7;0.11;;;;;;;3.48;XRF;;;4.93;0.32;;;;;;;;;;;;;;;;;;;;;;;;;;;;;;;;;;;;;;;;;;;;;;;8.6;10.37;;;;;;;;;;;;55.9;XRF;;;417.2;XRF;;;37.06;XRF;;;563.1;XRF;;;73.21;XRF;;;;;;;;;;;;;;733.96;XRF;;;73.74;ICPMS_LA;;;132.13;ICPMS_LA;;;16.96;63.53;ICPMS_LA;;;11.4;ICPMS_LA;;;3.04;9.91;1.41;6.86;1.39;3.35;;3.08;0.46;9.51;4.22;;;;;;;;10.78;ICPMS_LA;;;;;10.4;ICPMS_LA;;;2.28;;;;;;;;;;;;;;;;;;;;;;;;;;;;;;;;;;;;;;;;;;;;;;;;;;;;;;;;;;;;;;;;;;;;;;;;;;;;;;;;
2008;[12738] KRUK N. N. (2008);samp. 8-794/1;;CENTRAL ASIAN FOLDBELT - PALEOZOIC / SIBERIA_PALEOZOIC / GORNY ALTAI / SANGAN FORMATION;UIMEN-LEBED^ TERRANE;52;87;52;87;;;OUTCROP;;;SUBAERIAL;VOLCANIC ROCK;TRACHYDACITE;;;;;DEVONIAN;;;;;WHOLE ROCK;;;;;;;;;;;;;66.14;0.37;;;15.72;;;;;;;;;4.28;;;;2.28;0.67;0.12;;;;;;;2.05;XRF;;;6.03;0.12;;;;;;;;;;;;;;2.31;;;;;;;;;;;;;;;;;;;;;;;;;;;;;;;;;;;;;;;;;;;;;;48;ICPMS;;;192;ICPMS;;;18.3;ICPMS;;;186.7;ICPMS;;;12.6;ICPMS;;;;;;;;;;;;;3;411;ICPMS;;;25.79;ICPMS;;;48.65;ICPMS;;;5.99;24.62;ICPMS;;;5.26;ICPMS;;;1.11;3.91;0.55;3.34;0.7;2.06;0.32;1.97;0.35;5.5;0.1;;;;;;;;;;;;;;6.7;ICPMS;;;2.6;;;;;;;;;;;;;;;;;;;;;;;;;;;;;;;;;;;;;;;;;;;;;;;;;;;;;;;;;;;;;;;;;;;;;;;;;;;;;;;;
2008;[12739] BADANINA E. V. (2008);samp. O-902;;CENTRAL ASIAN FOLDBELT - MESOZOIC / TRANSBAIKALIA - MESOZOIC / EASTERN TRANSBAIKALIA;KHANGILAY ORE CLUSTER, ORLOVKA MASSIF;51;114.5;51;114.5;;;OUTCROP;;;SUBAERIAL;VOLCANIC ROCK;TRACHYDACITE;;;;;MESOZOIC;;;;;INCLUSION;;;;;;GLASS INCLUSION;;;;QUARTZ;TRUE;750;66.9;0.09;;0;14.04;;;;;;;;;;;2.33;;0.11;2.68;0.13;;;;;;;6.12;EMP (EPMA);;;1.08;0.1;;;;;;;;;0.04;0;;;;;;;;;;;;;;;;;;;;;;;;;;;;;;;;;;;;;;;;;;;;;;;;;;;;;;;;;;;;;;;;;;;;;;;;;;;;;;;;;;;;;;;;;;;;;;;;;;;;;;;;;;;;;;;;;;;;;;;;;;;;;;;;;;;;;;;;;;;;;;;;;;;;;;;;;;;;;;;;;;;;;;;;;;;;;;;;;;;;;;;;;;;;;;;;;;;;;;;;;;;;;;;;;;
2008;[12739] BADANINA E. V. (2008);samp. O-902;;CENTRAL ASIAN FOLDBELT - MESOZOIC / TRANSBAIKALIA - MESOZOIC / EASTERN TRANSBAIKALIA;KHANGILAY ORE CLUSTER, ORLOVKA MASSIF;51;114.5;51;114.5;;;OUTCROP;;;SUBAERIAL;VOLCANIC ROCK;TRACHYDACITE;;;;;MESOZOIC;;;;;WHOLE ROCK;;;;;;;;;;;;;67.18;0.29;;0;16.86;;;;;;;;;;;1.76;;0.05;1.25;0.23;;;;;;;10.28;EMP (EPMA);;;0.27;0.06;;;;;;;;;0;;;;;0.8;;;;;;;;951.4;34.02;;;;;;;;;0;;;;;;;;;;;;;;;;;;;;;;;;;;;;;;;;;;;;32.43;ICPMS;;;88.82;ICPMS;;;23.92;ICPMS;;;;;;;;;;;;;;1264.28;ICPMS;;;45.03;ICPMS;;;81.87;ICPMS;;;13.07;46;ICPMS;;;11.4;ICPMS;;;0.91;8.41;1.37;7.69;1.48;4.21;0.64;4.3;0.64;;;;;;;;;;;;;;;;;;;;;;;;;;;;;;;;;;;;;;;;;;;;;;;;;;;;;;;;;;;;;;;;;;;;;;;;;;;;;;;;;;;;;;;;;;;;;;;;;;;;
2008;[12739] BADANINA E. V. (2008);samp. O-902;;CENTRAL ASIAN FOLDBELT - MESOZOIC / TRANSBAIKALIA - MESOZOIC / EASTERN TRANSBAIKALIA;KHANGILAY ORE CLUSTER, ORLOVKA MASSIF;51;114.5;51;114.5;;;OUTCROP;;;SUBAERIAL;VOLCANIC ROCK;TRACHYDACITE;;;;;MESOZOIC;;;;;INCLUSION;;;;;;MINERAL INCLUSION;;BIOTITE;;MELT;FALSE;;41.6;0.26;;;22.08;;;;;;0;0;0.12;;;9.6;;0;11.42;0.33;;;;;;0.04;8.76;EMP (EPMA);;;0.24;;;;;;;;;;1.06;0;;;;;;;;;;;;;;;;;;;;;;;;;;;;;;;;;;;;;;;;;;;;;;;;;;;;;;;;;;;;;;;;;;;;;;;;;;;;;;;;;;;;;;;;;;;;;;;;;;;;;;;;;;;;;;;;;;;;;;;;;;;;;;;;;;;;;;;;;;;;;;;;;;;;;;;;;;;;;;;;;;;;;;;;;;;;;;;;;;;;;;;;;;;;;;;;;;;;;;;;;;;;;;;;;;
2008;[12739] BADANINA E. V. (2008);samp. O-902;;CENTRAL ASIAN FOLDBELT - MESOZOIC / TRANSBAIKALIA - MESOZOIC / EASTERN TRANSBAIKALIA;KHANGILAY ORE CLUSTER, ORLOVKA MASSIF;51;114.5;51;114.5;;;OUTCROP;;;SUBAERIAL;VOLCANIC ROCK;TRACHYDACITE;;;;;MESOZOIC;;;;;INCLUSION;;;;;;MINERAL INCLUSION;;PHENGITE-MUSCOVITE;;MELT;FALSE;;53.68;2.08;;;18.16;;;;;;0;0.05;0;;;14.96;;0;1.02;0.04;;;;;;0.05;6.85;EMP (EPMA);;;0.2;;;;;;;;;;0;0.09;;;;;;;;;;;;;;;;;;;;;;;;;;;;;;;;;;;;;;;;;;;;;;;;;;;;;;;;;;;;;;;;;;;;;;;;;;;;;;;;;;;;;;;;;;;;;;;;;;;;;;;;;;;;;;;;;;;;;;;;;;;;;;;;;;;;;;;;;;;;;;;;;;;;;;;;;;;;;;;;;;;;;;;;;;;;;;;;;;;;;;;;;;;;;;;;;;;;;;;;;;;;;;;;;;