Year;CITATION;SAMPLE NAME;UNIQUE_ID;LOCATION;LOCATION COMMENT;LATITUDE (MIN.);LONGITUDE (MIN.);LATITUDE (MAX.);LONGITUDE (MAX.);ELEVATION (MIN.);ELEVATION (MAX.);SAMPLING TECHNIQUE;DRILLING DEPTH (MIN.);DRILLING DEPTH (MAX.);LAND/SEA (SAMPLING);ROCK TYPE;ROCK NAME;ROCK TEXTURE;SAMPLE COMMENT;AGE (MIN.);AGE (MAX.);GEOLOGICAL AGE;GEOLOGICAL AGE PREFIX;ERUPTION YEAR;ALTERATION;ALTERATION TYPE;TYPE OF MATERIAL;MINERAL / COMPONENT;SPOT (MINERAL);CRYSTAL;RIM / CORE (MINERAL GRAINS);PRIMARY/SECONDARY;INCLUSION TYPE;SPOT (INCLUSION);MINERAL (INCLUSION);RIM / CORE (INCLUSION);HOSTMINERAL (INCLUSION);HEATING;HEATING TEMPERATURE (?C);SIO2(WT%);TIO2(WT%);ZRO2(WT%);B2O3(WT%);AL2O3(WT%);CR2O3(WT%);LA2O3(WT%);CE2O3(WT%);Y2O3(WT%);V2O3(WT%);NB2O3(WT%);TA2O5(WT%);WO3(WT%);FE2O3T(WT%);FE2O3(WT%);FEOT(WT%);FEO(WT%);CAO(WT%);MGO(WT%);MNO(WT%);BAO(WT%);SRO(WT%);NIO(WT%);ZNO(WT%);CS2O(WT%);RB2O(WT%);K2O(WT%);;;;NA2O(WT%);P2O5(WT%);H2O(WT%);;;;H2OP(WT%);H2OM(WT%);CO2(WT%);C(WT%);F(WT%);CL(WT%);SO2(WT%);SO3(WT%);S(WT%);LOI(WT%);AL(WT%);TI(WT%);FE(WT%);MG(WT%);CA(WT%);K(WT%);NA(WT%);LI(PPM);BE(PPM);B(PPM);C(PPM);F(PPM);NA(PPM);MG(PPM);AL(PPM);P(PPM);S(PPM);CL(PPM);AR40(AT/G);AR40(CCMSTP/G);AR40(MOL/G);AR40(PPB);K(PPM);CA(PPM);SC(PPM);;;;TI(PPM);;;;V(PPM);CR(PPM);MN(PPM);FE(PPM);CO(PPM);NI(PPM);CU(PPM);ZN(PPM);GA(PPM);GE(PPM);AS(PPM);SE(PPM);BR(PPM);RB(PPM): altern. values or methods;;;;SR(PPM): altern. values or methods;;;;Y(PPM): altern. values or methods;;;;ZR(PPM): altern. values or methods;;;;NB(PPM): altern. values or methods;;;;MO(PPM): altern. values or methods;;;;AG(PPM);CD(PPM);IN(PPM);SN(PPM);SB(PPM);TE(PPM);CS(PPM);BA(PPM): altern. values or methods;;;;LA(PPM): altern. values or methods;;;;CE(PPM): altern. values or methods;;;;PR(PPM);ND(PPM): altern. values or methods;;;;SM(PPM): altern. values or methods;;;;EU(PPM);GD(PPM);TB(PPM);DY(PPM);HO(PPM);ER(PPM);TM(PPM);YB(PPM);LU(PPM);HF(PPM);TA(PPM);W(PPM);RE(PPM);AU(PPM);AU(PPB);HG(PPM);HG(PPB);TL(PPM);PB(PPM): altern. values or methods;;;;PB206(PPM);BI(PPM);TH(PPM): altern. values or methods;;;;U(PPM);ND143_ND144;ND143_ND144_INI;EPSILON_ND;EPSILON_ND_INI;SM147_ND144;SR87_SR86;SR87_SR86_INI;EPSILON_SR;EPSILON_SR_INI;RB87_SR86;PB206_PB204;PB206_PB204_INI;PB206_PB207;PB206_PB208;PB207_PB204;PB207_PB204_INI;PB207_PB206;PB208_PB204;PB208_PB204_INI;PB208_PB206;HF176_HF177;HF176_HF177_INI;EPSILON_HF_INI;LU176_HF177;YB176_HF177;AR36_AR39;AR36_AR40;AR37_AR39;AR38_AR39;AR39_AR40;AR40_AR36;AR40_AR39;PB206_U238;PB207_U235;PB208_TH232;TH232_PB204;TH232_U238;U235_PB204;U238_PB204;U238_PB206;D7LI(VS LSVEC);D18O(PER MIL);D18O(VS SMOW);D18O(VS VSMOW);D56FE(VS IRMM-014);D57FE(VS IRMM-014);DD(VS SMOW);ALBITE(MOL%);ANORTHITE(MOL%);CA OLIVINE(MOL%);ENSTATITE(MOL%);FAYALITE(MOL%);FORSTERITE(MOL%);FERROSILITE(MOL%);ORTHOCLASE(MOL%);TEPHROITE(MOL%);ULVOSPINEL(MOL%);WOLLASTONITE(MOL%);AGE(KA): altern. values or methods;;;;AGE(MA): altern. values or methods;;;;;;;;AGE_PB207_PB206(MA);AGE_PB207_U235(MA);AGE_PB206_U238(MA): altern. values or methods;;;;;;AGE_PB208_TH232(MA);
2004;[14865] CALLEGARI E. (2004);samp. ZC 698;;ADRIA DOMAIN / SOUTHERN ALPS / VENETO VOLCANIC PROVINCE / COVER SERIES;;45.21;7.58;45.21;7.58;;;OUTCROP;;;SUBAERIAL;VOLCANIC ROCK;TRACHYDACITE;;SHOSHONITIC LAVA;;;OLIGOCENE;;;;;MINERAL / COMPONENT (INCL. GROUNDMASS);(AL)KALIFELDSPAR;;MICROCRYST;;PRIMARY;;;;;;;;64.7;0.1;;;17.65;;;;;;;;;;0;;0;0;0.26;0;;;;;;;16.27;EMP (EPMA);;;0.42;;;;;;;;;;;;;;;;;;;;;;;;;;;;;;;;;;;;;;;;;;;;;;;;;;;;;;;;;;;;;;;;;;;;;;;;;;;;;;;;;;;;;;;;;;;;;;;;;;;;;;;;;;;;;;;;;;;;;;;;;;;;;;;;;;;;;;;;;;;;;;;;;;;;;;;;;;;;;;;;;;;;;;;;;;;;;;;;;;;;;;;;;;;;;3.8;0;;;;;;96.2;;;;;;;;;;;;;;;;;;;;;;;;;
2004;[14865] CALLEGARI E. (2004);samp. ZC 698;;ADRIA DOMAIN / SOUTHERN ALPS / VENETO VOLCANIC PROVINCE / COVER SERIES;;45.21;7.58;45.21;7.58;;;OUTCROP;;;SUBAERIAL;VOLCANIC ROCK;TRACHYDACITE;;SHOSHONITIC LAVA;;;OLIGOCENE;;;;;MINERAL / COMPONENT (INCL. GROUNDMASS);(AL)KALIFELDSPAR;;;CORE;PRIMARY;;;;;;;;64.43;0.35;;;17.6;;;;;;;;;;0.1;;0;0;0;0.07;;;;;;;16.39;EMP (EPMA);;;0.42;;;;;;;;;;;;;;;;;;;;;;;;;;;;;;;;;;;;;;;;;;;;;;;;;;;;;;;;;;;;;;;;;;;;;;;;;;;;;;;;;;;;;;;;;;;;;;;;;;;;;;;;;;;;;;;;;;;;;;;;;;;;;;;;;;;;;;;;;;;;;;;;;;;;;;;;;;;;;;;;;;;;;;;;;;;;;;;;;;;;;;;;;;;;;3.7;0;;;;;;96.3;;;;;;;;;;;;;;;;;;;;;;;;;
2004;[14865] CALLEGARI E. (2004);samp. ZC 698;;ADRIA DOMAIN / SOUTHERN ALPS / VENETO VOLCANIC PROVINCE / COVER SERIES;;45.21;7.58;45.21;7.58;;;OUTCROP;;;SUBAERIAL;VOLCANIC ROCK;TRACHYDACITE;;SHOSHONITIC LAVA;;;OLIGOCENE;;;;;MINERAL / COMPONENT (INCL. GROUNDMASS);(AL)KALIFELDSPAR;;;RIM;PRIMARY;;;;;;;;64.43;0.3;;;17.94;;;;;;;;;;0;;0;0;0.09;0;;;;;;;16.57;EMP (EPMA);;;0.32;;;;;;;;;;;;;;;;;;;;;;;;;;;;;;;;;;;;;;;;;;;;;;;;;;;;;;;;;;;;;;;;;;;;;;;;;;;;;;;;;;;;;;;;;;;;;;;;;;;;;;;;;;;;;;;;;;;;;;;;;;;;;;;;;;;;;;;;;;;;;;;;;;;;;;;;;;;;;;;;;;;;;;;;;;;;;;;;;;;;;;;;;;;;;2.9;0;;;;;;97.1;;;;;;;;;;;;;;;;;;;;;;;;;
2004;[14865] CALLEGARI E. (2004);samp. ZC 698;;ADRIA DOMAIN / SOUTHERN ALPS / VENETO VOLCANIC PROVINCE / COVER SERIES;;45.21;7.58;45.21;7.58;;;OUTCROP;;;SUBAERIAL;VOLCANIC ROCK;TRACHYDACITE;;SHOSHONITIC LAVA;;;OLIGOCENE;;;;;MINERAL / COMPONENT (INCL. GROUNDMASS);CLINOPYROXENE;;;;PRIMARY;;;;;;;;51.36;0.27;;;1.06;0;;;;;;;;;1.6;;10.28;20.56;12.5;0.66;;;0.34;;;;0.04;EMP (EPMA);;;0.51;;;;;;;;;;;;;;;;;;;;;;;;;;;;;;;;;;;;;;;;;;;;;;;;;;;;;;;;;;;;;;;;;;;;;;;;;;;;;;;;;;;;;;;;;;;;;;;;;;;;;;;;;;;;;;;;;;;;;;;;;;;;;;;;;;;;;;;;;;;;;;;;;;;;;;;;;;;;;;;;;;;;;;;;;;;;;;;;;;;;;;;;;;;;;;;;;;;;;;;;;;;;;;;;;;;;;;;;;;;;;
2004;[14865] CALLEGARI E. (2004);samp. ZC 698;;ADRIA DOMAIN / SOUTHERN ALPS / VENETO VOLCANIC PROVINCE / COVER SERIES;;45.21;7.58;45.21;7.58;;;OUTCROP;;;SUBAERIAL;VOLCANIC ROCK;TRACHYDACITE;;SHOSHONITIC LAVA;;;OLIGOCENE;;;;;MINERAL / COMPONENT (INCL. GROUNDMASS);CLINOPYROXENE;;;CORE;PRIMARY;;;;;;;;51.07;0.36;;;1.71;0.12;;;;;;;;;1.48;;9.25;21.03;12.89;0.52;;;0;;;;0;EMP (EPMA);;;0.51;;;;;;;;;;;;;;;;;;;;;;;;;;;;;;;;;;;;;;;;;;;;;;;;;;;;;;;;;;;;;;;;;;;;;;;;;;;;;;;;;;;;;;;;;;;;;;;;;;;;;;;;;;;;;;;;;;;;;;;;;;;;;;;;;;;;;;;;;;;;;;;;;;;;;;;;;;;;;;;;;;;;;;;;;;;;;;;;;;;;;;;;;;;;;;;;;;;;;;;;;;;;;;;;;;;;;;;;;;;;;
2004;[14865] CALLEGARI E. (2004);samp. ZC 698;;ADRIA DOMAIN / SOUTHERN ALPS / VENETO VOLCANIC PROVINCE / COVER SERIES;;45.21;7.58;45.21;7.58;;;OUTCROP;;;SUBAERIAL;VOLCANIC ROCK;TRACHYDACITE;;SHOSHONITIC LAVA;;;OLIGOCENE;;;;;MINERAL / COMPONENT (INCL. GROUNDMASS);CLINOPYROXENE;;;RIM;PRIMARY;;;;;;;;51.68;0.48;;;1.56;0.09;;;;;;;;;0.63;;11.75;19.01;12.68;0.89;;;0.02;;;;0.11;EMP (EPMA);;;0.55;;;;;;;;;;;;;;;;;;;;;;;;;;;;;;;;;;;;;;;;;;;;;;;;;;;;;;;;;;;;;;;;;;;;;;;;;;;;;;;;;;;;;;;;;;;;;;;;;;;;;;;;;;;;;;;;;;;;;;;;;;;;;;;;;;;;;;;;;;;;;;;;;;;;;;;;;;;;;;;;;;;;;;;;;;;;;;;;;;;;;;;;;;;;;;;;;;;;;;;;;;;;;;;;;;;;;;;;;;;;;
2004;[14865] CALLEGARI E. (2004);samp. ZC 698;;ADRIA DOMAIN / SOUTHERN ALPS / VENETO VOLCANIC PROVINCE / COVER SERIES;;45.21;7.58;45.21;7.58;;;OUTCROP;;;SUBAERIAL;VOLCANIC ROCK;TRACHYDACITE;;SHOSHONITIC LAVA;;;OLIGOCENE;;;;;MINERAL / COMPONENT (INCL. GROUNDMASS);CLINOPYROXENE;;;CORE;PRIMARY;;;;;;;;53.46;0;;;0.86;0.24;;;;;;;;;1.27;;3.35;22.64;16.23;0.06;;;0;;;;0;EMP (EPMA);;;0.68;;;;;;;;;;;;;;;;;;;;;;;;;;;;;;;;;;;;;;;;;;;;;;;;;;;;;;;;;;;;;;;;;;;;;;;;;;;;;;;;;;;;;;;;;;;;;;;;;;;;;;;;;;;;;;;;;;;;;;;;;;;;;;;;;;;;;;;;;;;;;;;;;;;;;;;;;;;;;;;;;;;;;;;;;;;;;;;;;;;;;;;;;;;;;;;;;;;;;;;;;;;;;;;;;;;;;;;;;;;;;
2004;[14865] CALLEGARI E. (2004);samp. ZC 698;;ADRIA DOMAIN / SOUTHERN ALPS / VENETO VOLCANIC PROVINCE / COVER SERIES;;45.21;7.58;45.21;7.58;;;OUTCROP;;;SUBAERIAL;VOLCANIC ROCK;TRACHYDACITE;;SHOSHONITIC LAVA;;;OLIGOCENE;;;;;MINERAL / COMPONENT (INCL. GROUNDMASS);CLINOPYROXENE;;;RIM;PRIMARY;;;;;;;;52.06;0.34;;;1.56;0.02;;;;;;;;;0.25;;9.84;21.45;12.88;0.53;;;0;;;;0;EMP (EPMA);;;0.4;;;;;;;;;;;;;;;;;;;;;;;;;;;;;;;;;;;;;;;;;;;;;;;;;;;;;;;;;;;;;;;;;;;;;;;;;;;;;;;;;;;;;;;;;;;;;;;;;;;;;;;;;;;;;;;;;;;;;;;;;;;;;;;;;;;;;;;;;;;;;;;;;;;;;;;;;;;;;;;;;;;;;;;;;;;;;;;;;;;;;;;;;;;;;;;;;;;;;;;;;;;;;;;;;;;;;;;;;;;;;
2004;[14865] CALLEGARI E. (2004);samp. ZC 698;;ADRIA DOMAIN / SOUTHERN ALPS / VENETO VOLCANIC PROVINCE / COVER SERIES;;45.21;7.58;45.21;7.58;;;OUTCROP;;;SUBAERIAL;VOLCANIC ROCK;TRACHYDACITE;;SHOSHONITIC LAVA;;;OLIGOCENE;;;;;MINERAL / COMPONENT (INCL. GROUNDMASS);AMPHIBOLE;;;CORE;PRIMARY;;;;;;;;41.61;2.6;;;11.38;0;;;;;;;;;0;;13.43;11.92;11.49;0.15;;;0;;;;1.59;EMP (EPMA);;;1.91;;;;;;;;;;;;;;;;;;;;;;;;;;;;;;;;;;;;;;;;;;;;;;;;;;;;;;;;;;;;;;;;;;;;;;;;;;;;;;;;;;;;;;;;;;;;;;;;;;;;;;;;;;;;;;;;;;;;;;;;;;;;;;;;;;;;;;;;;;;;;;;;;;;;;;;;;;;;;;;;;;;;;;;;;;;;;;;;;;;;;;;;;;;;;;;;;;;;;;;;;;;;;;;;;;;;;;;;;;;;;
2004;[14865] CALLEGARI E. (2004);samp. ZC 698;;ADRIA DOMAIN / SOUTHERN ALPS / VENETO VOLCANIC PROVINCE / COVER SERIES;;45.21;7.58;45.21;7.58;;;OUTCROP;;;SUBAERIAL;VOLCANIC ROCK;TRACHYDACITE;;SHOSHONITIC LAVA;;;OLIGOCENE;;;;;MINERAL / COMPONENT (INCL. GROUNDMASS);AMPHIBOLE;;;CORE;PRIMARY;;;;;;;;40.53;2.55;;;11.09;0.07;;;;;;;;;1.75;;13.75;11.99;11.2;0.17;;;0;;;;1.29;EMP (EPMA);;;1.87;;;;;;;;;;;;;;;;;;;;;;;;;;;;;;;;;;;;;;;;;;;;;;;;;;;;;;;;;;;;;;;;;;;;;;;;;;;;;;;;;;;;;;;;;;;;;;;;;;;;;;;;;;;;;;;;;;;;;;;;;;;;;;;;;;;;;;;;;;;;;;;;;;;;;;;;;;;;;;;;;;;;;;;;;;;;;;;;;;;;;;;;;;;;;;;;;;;;;;;;;;;;;;;;;;;;;;;;;;;;;
2004;[14865] CALLEGARI E. (2004);samp. ZC 698;;ADRIA DOMAIN / SOUTHERN ALPS / VENETO VOLCANIC PROVINCE / COVER SERIES;;45.21;7.58;45.21;7.58;;;OUTCROP;;;SUBAERIAL;VOLCANIC ROCK;TRACHYDACITE;;SHOSHONITIC LAVA;;;OLIGOCENE;;;;;MINERAL / COMPONENT (INCL. GROUNDMASS);BIOTITE;;;;PRIMARY;;;;;;;;35.58;6.09;;;12.65;0.05;;;;;;;;;;14.63;;0.1;13.16;0.24;0.47;;0.07;;;;8.61;EMP (EPMA);;;0.16;;;;;;;;;;;;;;;;;;;;;;;;;;;;;;;;;;;;;;;;;;;;;;;;;;;;;;;;;;;;;;;;;;;;;;;;;;;;;;;;;;;;;;;;;;;;;;;;;;;;;;;;;;;;;;;;;;;;;;;;;;;;;;;;;;;;;;;;;;;;;;;;;;;;;;;;;;;;;;;;;;;;;;;;;;;;;;;;;;;;;;;;;;;;;;;;;;;;;;;;;;;;;;;;;;;;;;;;;;;;;
2010;[14905] YOGODZINSKI G. M.(2010)  [GeoReM [5269] ];samp. KR01-24;;ALEUTIAN ARC / CENTRAL ALEUTIAN ARC / ATKA / KOROVIN;;52.08;-174.67;52.08;-174.67;;;OUTCROP;;;SUBAERIAL;VOLCANIC ROCK;TRACHYDACITE;;LAVA;;;QUATERNARY;;;;;WHOLE ROCK;;;;;;;;;;;;;64.0948648786198;0.58628937859433;;;16.4588528678304;;;;;;;;;;;5.1585322408265;;3.81698814189017;1.46572344648583;0.147590208153087;;;;;;;3.30805638963815;XRF;;;4.78395847116902;0.179143976792712;;;;;;;;;;;;;;;;;;;;;;;;;;;;;;;;;;;;;;;;;;;;;;;;;;;;;;;;;;;;;;;;;;;;;;;;;;;;;;;;;;;;;;;;;;;;;;;;;;;;;;;;;;;;;;;;;;;;;;;;;;;;;;;;;;;;;;;;;;;;;0.513018;;;;;;;;;;;;;;;;;;;;0.283174;;;;;;;;;;;;;;;;;;;;;;;;;;;;;;;;;;;;;;;;;;;;;;;;;;;;;;;;;;;
2010;[14905] YOGODZINSKI G. M.(2010)  [GeoReM [5269] ];samp. SITRK4;42684;ALEUTIAN ARC / CENTRAL ALEUTIAN ARC / GREAT SITKIN / GREAT SITKIN;;52.08;-176.17;52.08;-176.17;;;OUTCROP;;;SUBAERIAL;VOLCANIC ROCK;TRACHYDACITE;;LAVA;;;QUATERNARY;;;;;WHOLE ROCK;;;;;;;;;;;;;;;;;;;;;;;;;;;;;;;;;;;;;;;;;;;;;;;;;;;;;;;;;;;;;;;;;;;;;;;;;;;;;;;;;;;;;;;;;;;;;;;;;;;;;;;;;;;;;;;;;;;;;;;;;;;;;;;;;;;;;;;;;;;;;;;;;;;;;;;;;;;;;;;;;;;;;;;;;;;;;;;;;;;;;;;;;0.513023;;;;;;;;;;;;;;;;;;;;0.283155;;;;;;;;;;;;;;;;;;;;;;;;;;;;;;;;;;;;;;;;;;;;;;;;;;;;;;;;;;;
2010;[15133] VORONTSOV A. A. (2010);samp. SHKH-1/6A;;CENTRAL ASIAN FOLDBELT - PALEOZOIC / SIBERIA_PALEOZOIC / EASTERN SAYAN;ZUUN-SALAA RIVER AREA, KROPOTKIN RANGE;53;99.8;53;99.8;3114;3114;OUTCROP;;;SUBAERIAL;VOLCANIC ROCK;TRACHYDACITE;;;;;DEVONIAN;;;;;WHOLE ROCK;;;;;;;;;;;;;67.7;0.6;;;13.96;;;;;;;;;6.27;;;;1.08;0.19;0.13;;;;;;;3.78;XRF;;;4.87;0.06;;;;;;;;;;;;;;1.26;;;;;;;;;;;;;;;;;;;;;;;;;;;;;;;;;;;;;;;;;;;;;;79.39;ICPMS;;;39.07;ICPMS;;;79.48;ICPMS;;;587;XRF;570;ICPMS;24;XRF;20.14;ICPMS;;;;;;;;;;;3.8;1025.36;ICPMS;;;79.38;ICPMS;;;152.72;ICPMS;;;12.81;65.67;ICPMS;;;12.53;ICPMS;;;2.58;12.47;1.91;11.57;2.26;7.18;1.19;7.46;1.39;15.59;2.42;;;;;;;;25.02;ICPMS;;;;;13.69;ICPMS;;;4.83;;;;;;;;;;;;;;;;;;;;;;;;;;;;;;;;;;;;;;;;;;;;;;;;;;;;;;;;;;;;;;;;;;;;;;;;;;;;;;;;
2010;[15133] VORONTSOV A. A. (2010);samp. KHOL-1/11;;CENTRAL ASIAN FOLDBELT - PALEOZOIC / SIBERIA_PALEOZOIC / KROPOTKIN GRABEN;KHOLBA;52.8;99.5;53;100.5;;;OUTCROP;;;SUBAERIAL;VOLCANIC ROCK;TRACHYDACITE;;;;;DEVONIAN;;;;;WHOLE ROCK;;;;;;;;;;;;;67.22;0.6;;;15.75;;;;;;;;;4.27;;;;1.22;0.47;0.04;;;;;;;2.62;XRF;;;6.93;0.1;;;;;;;;;;;;;;0.75;;;;;;;;;;;;;;;;;;;;;;;;;;;;;;;;;;;;;;;;;;;;;;22.39;ICPMS;;;105.36;ICPMS;;;29.64;ICPMS;;;215;XRF;239;ICPMS;11;XRF;12.51;ICPMS;;;;;;;;;;;2.6;520.41;ICPMS;;;37.79;ICPMS;;;83.15;ICPMS;;;9.85;37.11;ICPMS;;;7.03;ICPMS;;;1.62;5.96;0.96;4.76;0.95;2.81;0.35;2.5;0.42;5.05;0.53;;;;;;;;5.43;ICPMS;;;;;2.83;ICPMS;;;0.99;;;;;;;;;;;;;;;;;;;;;;;;;;;;;;;;;;;;;;;;;;;;;;;;;;;;;;;;;;;;;;;;;;;;;;;;;;;;;;;;
2005;[15140] SOROKIN A. A. (2005);samp. B-1;;CENTRAL ASIAN FOLDBELT - PROTEROZOIC / SIBERIA_PROTEROZOIC / KHINGAN-OKHOTSK BELT / STANOLIR / STANOLIR FORMATION;;48.7;130.5;49.2;131.5;;;OUTCROP;;;SUBAERIAL;VOLCANIC ROCK;TRACHYDACITE;;ALKALINE;;;CRETACEOUS;;;;;MINERAL / COMPONENT (INCL. GROUNDMASS);GROUNDMASS;;;;PRIMARY;;;;;;;;;;;;;;;;;;;;;;;;;;;;;;;;;;;;;;;;;;;;;;;;;;;;;;;;;;;;;;;;;;;;;;;;;;;;;;;;;;;;;;;;;;;;;;;;;;;;;;;;;;;;;;;;;;;;;;;;;;;;;;;;;;;;;;;;;;;;;;;;;;;;;;;;;;;;;;;;;;;;;;;;;;;;;;;;;;;;;;;;;;;;;;;;;;;;;;;;;;;;;;;;;;;;;;;;;;;;;;;;;;;;;;;;;;;;;;;;;;99.1;AR-AR;;;;;;;;;;;;;;;;
2011;[15311] GUZMAN S. R. (2011);samp. CMS-03;;ANDEAN ARC / CENTRAL ANDEAN VOLCANIC ZONE / ARGENTINA / LUINGO CALDERA / LAVA I UNIT;SE MARGIN OF PUNA PLATEAU;-26.127;-66.5773;-26.127;-66.5773;;;OUTCROP;;;SUBAERIAL;VOLCANIC ROCK;TRACHYDACITE;MEDIUM- TO FINE-GRAINED, PORPHYRITIC, MICRO- TO CRYPTOCRYSTALLINE, INTERSERTAL AND/OR PILOTAXIC GROUNDMASS;;;;MIOCENE;MIDDLE;;;;WHOLE ROCK;;;;;;;;;;;;;65.81;0.57;;;15.68;;;;;;;;;3.27;;;;2.03;1.31;0.08;;;;;;;5.13;XRF;;;2.83;0.28;;;;;;;;;;;;;;2.09;;;;;;;;;2;;;;;;;;;;;;;;;;;;;;;;;;85;;;;;;;;18.1;;;;;223.7;ICPMS;;;368.7;ICPMS;;;22.8;ICPMS;;;194.5;ICPMS;;;24.2;ICPMS;;;;;;;;;;2;;;7.8;586;ICPMS;;;42.5;ICPMS;;;80.6;ICPMS;;;8.6;31.8;ICPMS;;;5.36;ICPMS;;;1.17;4.29;0.7;3.36;0.68;2.15;0.34;2.23;0.33;5.1;1.6;;;;;;;;;;;;;;19;ICPMS;;;5.3;;;;;;;;;;;;;;;;;;;;;;;;;;;;;;;;;;;;;;;;;;;;;;;;;;;;;;;;;;;;;;;;;;;;;;;;;;;;;;;;
2011;[15311] GUZMAN S. R. (2011);samp. CMS-29A;;ANDEAN ARC / CENTRAL ANDEAN VOLCANIC ZONE / ARGENTINA / LUINGO CALDERA / LAVA II UNIT;SE MARGIN OF PUNA PLATEAU;-26.1132;-66.6738;-26.1132;-66.6738;;;OUTCROP;;;SUBAERIAL;VOLCANIC ROCK;TRACHYDACITE;FINE- TO MEDIUM-GRAINED, PORPHYRITIC, MICRO- TO CRYPTOCRYSTALLINE, INTERSERTAL AND/OR PILOTAXIC GROUNDMASS;;;;MIOCENE;MIDDLE;;;;WHOLE ROCK;;;;;;;;;;;;;65.43;0.54;;;15.75;;;;;;;;;3.85;;;;3.49;1.86;0.06;;;;;;;3.91;XRF;;;3.25;0.22;;;;;;;;;;;;;;1.89;;;;;;;;;2;;;;;;;;;;;;;;;;;;;;;;;;78;10;;;;;;;22.4;;;;;191;ICPMS;;;402;ICPMS;;;18.6;ICPMS;;;195;ICPMS;;;15.1;ICPMS;;;;;;;;;;2;;;14.1;580;ICPMS;;;45.4;ICPMS;;;98.3;ICPMS;;;10.41;36.6;ICPMS;;;6.45;ICPMS;;;1.17;4.39;0.67;2.92;0.49;1.47;0.21;1.43;0.2;5.2;1.2;;;;;;;;;;;;;;30.4;ICPMS;;;6.6;0.512305;;;;0.110685;0.70994;;;;;;;;;;;;;;;;;;;;;;;;;;;;;;;;;;;;;;;;;;;;;;;;;;;;;;;;;;;;;;;;;;;;;;;;;;
2011;[15311] GUZMAN S. R. (2011);samp. CMS-28;;ANDEAN ARC / CENTRAL ANDEAN VOLCANIC ZONE / ARGENTINA / LUINGO CALDERA / LAVA II UNIT;SE MARGIN OF PUNA PLATEAU;-26.1132;-66.6738;-26.1132;-66.6738;;;OUTCROP;;;SUBAERIAL;VOLCANIC ROCK;TRACHYDACITE;FINE- TO MEDIUM-GRAINED, PORPHYRITIC, MICRO- TO CRYPTOCRYSTALLINE, INTERSERTAL AND/OR PILOTAXIC GROUNDMASS;;;;MIOCENE;MIDDLE;;;;WHOLE ROCK;;;;;;;;;;;;;66.39;0.52;;;15.44;;;;;;;;;3.6;;;;3.34;1.68;0.06;;;;;;;4.13;XRF;;;3.38;0.22;;;;;;;;;;;;;;1.57;;;;;;;;;2;;;;;;;;;;;;;;;;;;;;;;;;73;12;;;;;;;21.5;;;;;208;ICPMS;;;361;ICPMS;;;17;ICPMS;;;195;ICPMS;;;14.6;ICPMS;;;;;;;;;;2;;;11.4;555;ICPMS;;;43.8;ICPMS;;;92.9;ICPMS;;;9.97;34.8;ICPMS;;;6.21;ICPMS;;;1.07;3.98;0.61;2.71;0.47;1.31;0.17;1.31;0.18;5;1.1;;;;;;;;;;;;;;28.6;ICPMS;;;6.7;;;;;;;;;;;;;;;;;;;;;;;;;;;;;;;;;;;;;;;;;;;;;;;;;;;;;;;;;;;;;;;;;;;;;;;;;;;;;;;;
2011;[15311] GUZMAN S. R. (2011);samp. CMS-30;;ANDEAN ARC / CENTRAL ANDEAN VOLCANIC ZONE / ARGENTINA / LUINGO CALDERA / LAVA II UNIT;SE MARGIN OF PUNA PLATEAU;-26.1553;-66.7143;-26.1553;-66.7143;;;OUTCROP;;;SUBAERIAL;VOLCANIC ROCK;TRACHYDACITE;FINE- TO MEDIUM-GRAINED, PORPHYRITIC, MICRO- TO CRYPTOCRYSTALLINE, INTERSERTAL AND/OR PILOTAXIC GROUNDMASS;;;;MIOCENE;MIDDLE;;;;WHOLE ROCK;;;;;;;;;;;;;64.16;0.62;;;15.52;;;;;;;;;4.59;;;;4.11;1.65;0.07;;;;;;;3.69;XRF;;;3.03;0.27;;;;;;;;;;;;;;1.67;;;;;;;;;2;;;;;;;;;;;;;;;;;;;;;;;;95;56;;;;;;;20.8;;;;;171;ICPMS;;;438;ICPMS;;;24;ICPMS;;;219;ICPMS;;;14.8;ICPMS;;;;;;;;;;2;;;39;644;ICPMS;;;45.2;ICPMS;;;91;ICPMS;;;10.41;38.4;ICPMS;;;6.8;ICPMS;;;1.28;4.99;0.77;3.33;0.62;1.78;0.25;1.71;0.25;5.8;1.2;;;;;;;;;;;;;;22;ICPMS;;;5.5;;;;;;;;;;;;;;;;;;;;;;;;;;;;;;;;;;;;;;;;;;;;;;;;;;;;;;;;;;;;;;;;;;;;;;;;;;;;;;;;
2011;[15311] GUZMAN S. R. (2011);samp. CMS-30;;ANDEAN ARC / CENTRAL ANDEAN VOLCANIC ZONE / ARGENTINA / LUINGO CALDERA / LAVA II UNIT;SE MARGIN OF PUNA PLATEAU;-26.1553;-66.7143;-26.1553;-66.7143;;;OUTCROP;;;SUBAERIAL;VOLCANIC ROCK;TRACHYDACITE;FINE- TO MEDIUM-GRAINED, PORPHYRITIC, MICRO- TO CRYPTOCRYSTALLINE, INTERSERTAL AND/OR PILOTAXIC GROUNDMASS;;;;MIOCENE;MIDDLE;;;;MINERAL / COMPONENT (INCL. GROUNDMASS);PYROXENE;;;RIM;PRIMARY;;;;;;;;52.57;0.17;;;2.29;0.76;;;;;;;;;0.01;;12.46;1.19;28.41;0.18;;;0.03;;;;0.01;EMP (EPMA);;;0.08;;;;;;;;;;;;;;;;;;;;;;;;;;;;;;;;;;;;;;;;;;;;;;;;;;;;;;;;;;;;;;;;;;;;;;;;;;;;;;;;;;;;;;;;;;;;;;;;;;;;;;;;;;;;;;;;;;;;;;;;;;;;;;;;;;;;;;;;;;;;;;;;;;;;;;;;;;;;;;;;;;;;;;;;;;;;;;;;;;;;;;;;;;;;;;;;;;;;;;;;;;;;;;;;;;;;;;;;;;;;;
2011;[15311] GUZMAN S. R. (2011);samp. CMS-30;;ANDEAN ARC / CENTRAL ANDEAN VOLCANIC ZONE / ARGENTINA / LUINGO CALDERA / LAVA II UNIT;SE MARGIN OF PUNA PLATEAU;-26.1553;-66.7143;-26.1553;-66.7143;;;OUTCROP;;;SUBAERIAL;VOLCANIC ROCK;TRACHYDACITE;FINE- TO MEDIUM-GRAINED, PORPHYRITIC, MICRO- TO CRYPTOCRYSTALLINE, INTERSERTAL AND/OR PILOTAXIC GROUNDMASS;;;;MIOCENE;MIDDLE;;;;MINERAL / COMPONENT (INCL. GROUNDMASS);PYROXENE;;;CORE;PRIMARY;;;;;;;;49.19;0.34;;;7.02;0.16;;;;;;;;;0.01;;18.53;1.57;22.74;0.33;;;0;;;;0;EMP (EPMA);;;0.25;;;;;;;;;;;;;;;;;;;;;;;;;;;;;;;;;;;;;;;;;;;;;;;;;;;;;;;;;;;;;;;;;;;;;;;;;;;;;;;;;;;;;;;;;;;;;;;;;;;;;;;;;;;;;;;;;;;;;;;;;;;;;;;;;;;;;;;;;;;;;;;;;;;;;;;;;;;;;;;;;;;;;;;;;;;;;;;;;;;;;;;;;;;;;;;;;;;;;;;;;;;;;;;;;;;;;;;;;;;;;
2011;[15311] GUZMAN S. R. (2011);samp. CMS-30;;ANDEAN ARC / CENTRAL ANDEAN VOLCANIC ZONE / ARGENTINA / LUINGO CALDERA / LAVA II UNIT;SE MARGIN OF PUNA PLATEAU;-26.1553;-66.7143;-26.1553;-66.7143;;;OUTCROP;;;SUBAERIAL;VOLCANIC ROCK;TRACHYDACITE;FINE- TO MEDIUM-GRAINED, PORPHYRITIC, MICRO- TO CRYPTOCRYSTALLINE, INTERSERTAL AND/OR PILOTAXIC GROUNDMASS;;;;MIOCENE;MIDDLE;;;;MINERAL / COMPONENT (INCL. GROUNDMASS);PYROXENE;;;RIM;PRIMARY;;;;;;;;52.14;0.22;;;1.25;0.02;;;;;;;;;0;;9.18;22.38;13.85;0.64;;;0.03;;;;0.02;EMP (EPMA);;;0;;;;;;;;;;;;;;;;;;;;;;;;;;;;;;;;;;;;;;;;;;;;;;;;;;;;;;;;;;;;;;;;;;;;;;;;;;;;;;;;;;;;;;;;;;;;;;;;;;;;;;;;;;;;;;;;;;;;;;;;;;;;;;;;;;;;;;;;;;;;;;;;;;;;;;;;;;;;;;;;;;;;;;;;;;;;;;;;;;;;;;;;;;;;;;;;;;;;;;;;;;;;;;;;;;;;;;;;;;;;;
2011;[15311] GUZMAN S. R. (2011);samp. CMS-30;;ANDEAN ARC / CENTRAL ANDEAN VOLCANIC ZONE / ARGENTINA / LUINGO CALDERA / LAVA II UNIT;SE MARGIN OF PUNA PLATEAU;-26.1553;-66.7143;-26.1553;-66.7143;;;OUTCROP;;;SUBAERIAL;VOLCANIC ROCK;TRACHYDACITE;FINE- TO MEDIUM-GRAINED, PORPHYRITIC, MICRO- TO CRYPTOCRYSTALLINE, INTERSERTAL AND/OR PILOTAXIC GROUNDMASS;;;;MIOCENE;MIDDLE;;;;MINERAL / COMPONENT (INCL. GROUNDMASS);PYROXENE;;;CORE;PRIMARY;;;;;;;;52.22;0.15;;;0.89;0;;;;;;;;;0;;8.64;22.46;14.35;0.76;;;0;;;;0.02;EMP (EPMA);;;0;;;;;;;;;;;;;;;;;;;;;;;;;;;;;;;;;;;;;;;;;;;;;;;;;;;;;;;;;;;;;;;;;;;;;;;;;;;;;;;;;;;;;;;;;;;;;;;;;;;;;;;;;;;;;;;;;;;;;;;;;;;;;;;;;;;;;;;;;;;;;;;;;;;;;;;;;;;;;;;;;;;;;;;;;;;;;;;;;;;;;;;;;;;;;;;;;;;;;;;;;;;;;;;;;;;;;;;;;;;;;