Year;CITATION;SAMPLE NAME;UNIQUE_ID;LOCATION;LOCATION COMMENT;LATITUDE (MIN.);LONGITUDE (MIN.);LATITUDE (MAX.);LONGITUDE (MAX.);ELEVATION (MIN.);ELEVATION (MAX.);SAMPLING TECHNIQUE;DRILLING DEPTH (MIN.);DRILLING DEPTH (MAX.);LAND/SEA (SAMPLING);ROCK TYPE;ROCK NAME;ROCK TEXTURE;SAMPLE COMMENT;AGE (MIN.);AGE (MAX.);GEOLOGICAL AGE;GEOLOGICAL AGE PREFIX;ERUPTION YEAR;ALTERATION;ALTERATION TYPE;TYPE OF MATERIAL;MINERAL / COMPONENT;SPOT (MINERAL);CRYSTAL;RIM / CORE (MINERAL GRAINS);PRIMARY/SECONDARY;INCLUSION TYPE;SPOT (INCLUSION);MINERAL (INCLUSION);RIM / CORE (INCLUSION);HOSTMINERAL (INCLUSION);HEATING;HEATING TEMPERATURE (?C);SIO2(WT%);TIO2(WT%);ZRO2(WT%);B2O3(WT%);AL2O3(WT%);CR2O3(WT%);LA2O3(WT%);CE2O3(WT%);Y2O3(WT%);V2O3(WT%);NB2O3(WT%);TA2O5(WT%);WO3(WT%);FE2O3T(WT%);FE2O3(WT%);FEOT(WT%);FEO(WT%);CAO(WT%);MGO(WT%);MNO(WT%);BAO(WT%);SRO(WT%);NIO(WT%);ZNO(WT%);CS2O(WT%);RB2O(WT%);K2O(WT%);;;;NA2O(WT%);P2O5(WT%);H2O(WT%);;;;H2OP(WT%);H2OM(WT%);CO2(WT%);C(WT%);F(WT%);CL(WT%);SO2(WT%);SO3(WT%);S(WT%);LOI(WT%);AL(WT%);TI(WT%);FE(WT%);MG(WT%);CA(WT%);K(WT%);NA(WT%);LI(PPM);BE(PPM);B(PPM);C(PPM);F(PPM);NA(PPM);MG(PPM);AL(PPM);P(PPM);S(PPM);CL(PPM);AR40(AT/G);AR40(CCMSTP/G);AR40(MOL/G);AR40(PPB);K(PPM);CA(PPM);SC(PPM);;;;TI(PPM);;;;V(PPM);CR(PPM);MN(PPM);FE(PPM);CO(PPM);NI(PPM);CU(PPM);ZN(PPM);GA(PPM);GE(PPM);AS(PPM);SE(PPM);BR(PPM);RB(PPM): altern. values or methods;;;;SR(PPM): altern. values or methods;;;;Y(PPM): altern. values or methods;;;;ZR(PPM): altern. values or methods;;;;NB(PPM): altern. values or methods;;;;MO(PPM): altern. values or methods;;;;AG(PPM);CD(PPM);IN(PPM);SN(PPM);SB(PPM);TE(PPM);CS(PPM);BA(PPM): altern. values or methods;;;;LA(PPM): altern. values or methods;;;;CE(PPM): altern. values or methods;;;;PR(PPM);ND(PPM): altern. values or methods;;;;SM(PPM): altern. values or methods;;;;EU(PPM);GD(PPM);TB(PPM);DY(PPM);HO(PPM);ER(PPM);TM(PPM);YB(PPM);LU(PPM);HF(PPM);TA(PPM);W(PPM);RE(PPM);AU(PPM);AU(PPB);HG(PPM);HG(PPB);TL(PPM);PB(PPM): altern. values or methods;;;;PB206(PPM);BI(PPM);TH(PPM): altern. values or methods;;;;U(PPM);ND143_ND144;ND143_ND144_INI;EPSILON_ND;EPSILON_ND_INI;SM147_ND144;SR87_SR86;SR87_SR86_INI;EPSILON_SR;EPSILON_SR_INI;RB87_SR86;PB206_PB204;PB206_PB204_INI;PB206_PB207;PB206_PB208;PB207_PB204;PB207_PB204_INI;PB207_PB206;PB208_PB204;PB208_PB204_INI;PB208_PB206;HF176_HF177;HF176_HF177_INI;EPSILON_HF_INI;LU176_HF177;YB176_HF177;AR36_AR39;AR36_AR40;AR37_AR39;AR38_AR39;AR39_AR40;AR40_AR36;AR40_AR39;PB206_U238;PB207_U235;PB208_TH232;TH232_PB204;TH232_U238;U235_PB204;U238_PB204;U238_PB206;D7LI(VS LSVEC);D18O(PER MIL);D18O(VS SMOW);D18O(VS VSMOW);D56FE(VS IRMM-014);D57FE(VS IRMM-014);DD(VS SMOW);ALBITE(MOL%);ANORTHITE(MOL%);CA OLIVINE(MOL%);ENSTATITE(MOL%);FAYALITE(MOL%);FORSTERITE(MOL%);FERROSILITE(MOL%);ORTHOCLASE(MOL%);TEPHROITE(MOL%);ULVOSPINEL(MOL%);WOLLASTONITE(MOL%);AGE(KA): altern. values or methods;;;;AGE(MA): altern. values or methods;;;;;;;;AGE_PB207_PB206(MA);AGE_PB207_U235(MA);AGE_PB206_U238(MA): altern. values or methods;;;;;;AGE_PB208_TH232(MA);
2016;[19999] SHANG-GUAN SHI-MAI (2016);samp. HA2-5379;;TARIM LARGE IGNEOUS PROVINCE / XINJIANG PROVINCE;HALAHATANG, HA2 WELL;41.3336;83.3458;41.3336;83.3458;;;DRILL HOLE ;;;SUBAERIAL;VOLCANIC ROCK;TRACHYDACITE;;;;;;;;;;MINERAL / COMPONENT (INCL. GROUNDMASS);ZIRCON;HA2@6;;;PRIMARY;;;;;;;;;;;;;;;;;;;;;;;;;;;;;;;;;;;;;;;;;;;;;;;;;;;;;;;;;;;;;;;;;;;;;;;;;;;;;;;;;;;;;;;;;;;;;;;;;;;;;;;;;;;;;;;;;;;;;;;;;;;;;;;;;;;;;;;;;;;;;;;;;;;;;;;;;;;;;;;;;;;;;;;;;;;;;;;36;SIMS;;;60;;;;;;;;;;;;;;;;;0.0513;;;;;;;;;;;;;;;;0.0462;0.32672;;;;;;;;;;;;;;;;;;;;;;;;;;;;;;;;;;;;;;;291.1;PB206_U238 AGE;;;;;;
2016;[19999] SHANG-GUAN SHI-MAI (2016);samp. HA2-5379;;TARIM LARGE IGNEOUS PROVINCE / XINJIANG PROVINCE;HALAHATANG, HA2 WELL;41.3336;83.3458;41.3336;83.3458;;;DRILL HOLE ;;;SUBAERIAL;VOLCANIC ROCK;TRACHYDACITE;;;;;;;;;;MINERAL / COMPONENT (INCL. GROUNDMASS);ZIRCON;HA2@7;;;PRIMARY;;;;;;;;;;;;;;;;;;;;;;;;;;;;;;;;;;;;;;;;;;;;;;;;;;;;;;;;;;;;;;;;;;;;;;;;;;;;;;;;;;;;;;;;;;;;;;;;;;;;;;;;;;;;;;;;;;;;;;;;;;;;;;;;;;;;;;;;;;;;;;;;;;;;;;;;;;;;;;;;;;;;;;;;;;;;;;;71;SIMS;;;87;;;;;;;;;;;;;;;;;0.0521;;;;;;;;;;;;;;;;0.0447;0.32097;;;;;;;;;;;;;;;;;;;;;;;;;;;;;;;;;;;;;;;281.8;PB206_U238 AGE;;;;;;
2016;[19999] SHANG-GUAN SHI-MAI (2016);samp. HA2-5379;;TARIM LARGE IGNEOUS PROVINCE / XINJIANG PROVINCE;HALAHATANG, HA2 WELL;41.3336;83.3458;41.3336;83.3458;;;DRILL HOLE ;;;SUBAERIAL;VOLCANIC ROCK;TRACHYDACITE;;;;;;;;;;MINERAL / COMPONENT (INCL. GROUNDMASS);ZIRCON;HA2@8;;;PRIMARY;;;;;;;;;;;;;;;;;;;;;;;;;;;;;;;;;;;;;;;;;;;;;;;;;;;;;;;;;;;;;;;;;;;;;;;;;;;;;;;;;;;;;;;;;;;;;;;;;;;;;;;;;;;;;;;;;;;;;;;;;;;;;;;;;;;;;;;;;;;;;;;;;;;;;;;;;;;;;;;;;;;;;;;;;;;;;;;30;SIMS;;;62;;;;;;;;;;;;;;;;;0.04981;;;;;;;;;;;;;;;;0.0453;0.31144;;;;;;;;;;;;;;;;;;;;;;;;;;;;;;;;;;;;;;;285.9;PB206_U238 AGE;;;;;;
2016;[19999] SHANG-GUAN SHI-MAI (2016);samp. HA2-5379;;TARIM LARGE IGNEOUS PROVINCE / XINJIANG PROVINCE;HALAHATANG, HA2 WELL;41.3336;83.3458;41.3336;83.3458;;;DRILL HOLE ;;;SUBAERIAL;VOLCANIC ROCK;TRACHYDACITE;;;;;;;;;;MINERAL / COMPONENT (INCL. GROUNDMASS);ZIRCON;HA2@9;;;PRIMARY;;;;;;;;;;;;;;;;;;;;;;;;;;;;;;;;;;;;;;;;;;;;;;;;;;;;;;;;;;;;;;;;;;;;;;;;;;;;;;;;;;;;;;;;;;;;;;;;;;;;;;;;;;;;;;;;;;;;;;;;;;;;;;;;;;;;;;;;;;;;;;;;;;;;;;;;;;;;;;;;;;;;;;;;;;;;;;;61;SIMS;;;78;;;;;;;;;;;;;;;;;0.05255;;;;;;;;;;;;;;;;0.0458;0.33164;;;;;;;;;;;;;;;;;;;;;;;;;;;;;;;;;;;;;;;288.5;PB206_U238 AGE;;;;;;
2016;[19999] SHANG-GUAN SHI-MAI (2016);samp. HA2-5379;;TARIM LARGE IGNEOUS PROVINCE / XINJIANG PROVINCE;HALAHATANG, HA2 WELL;41.3336;83.3458;41.3336;83.3458;;;DRILL HOLE ;;;SUBAERIAL;VOLCANIC ROCK;TRACHYDACITE;;;;;;;;;;MINERAL / COMPONENT (INCL. GROUNDMASS);ZIRCON;HA2@10;;;PRIMARY;;;;;;;;;;;;;;;;;;;;;;;;;;;;;;;;;;;;;;;;;;;;;;;;;;;;;;;;;;;;;;;;;;;;;;;;;;;;;;;;;;;;;;;;;;;;;;;;;;;;;;;;;;;;;;;;;;;;;;;;;;;;;;;;;;;;;;;;;;;;;;;;;;;;;;;;;;;;;;;;;;;;;;;;;;;;;;;71;SIMS;;;79;;;;;;;;;;;;;;;;;0.05146;;;;;;;;;;;;;;;;0.0455;0.32277;;;;;;;;;;;;;;;;;;;;;;;;;;;;;;;;;;;;;;;286.8;PB206_U238 AGE;;;;;;
2016;[19999] SHANG-GUAN SHI-MAI (2016);samp. HA2-5379;;TARIM LARGE IGNEOUS PROVINCE / XINJIANG PROVINCE;HALAHATANG, HA2 WELL;41.3336;83.3458;41.3336;83.3458;;;DRILL HOLE ;;;SUBAERIAL;VOLCANIC ROCK;TRACHYDACITE;;;;;;;;;;MINERAL / COMPONENT (INCL. GROUNDMASS);ZIRCON;HA2@11;;;PRIMARY;;;;;;;;;;;;;;;;;;;;;;;;;;;;;;;;;;;;;;;;;;;;;;;;;;;;;;;;;;;;;;;;;;;;;;;;;;;;;;;;;;;;;;;;;;;;;;;;;;;;;;;;;;;;;;;;;;;;;;;;;;;;;;;;;;;;;;;;;;;;;;;;;;;;;;;;;;;;;;;;;;;;;;;;;;;;;;;30;SIMS;;;61;;;;;;;;;;;;;;;;;0.05532;;;;;;;;;;;;;;;;0.0453;0.34534;;;;;;;;;;;;;;;;;;;;;;;;;;;;;;;;;;;;;;;285.4;PB206_U238 AGE;;;;;;
2016;[19999] SHANG-GUAN SHI-MAI (2016);samp. HA2-5379;;TARIM LARGE IGNEOUS PROVINCE / XINJIANG PROVINCE;HALAHATANG, HA2 WELL;41.3336;83.3458;41.3336;83.3458;;;DRILL HOLE ;;;SUBAERIAL;VOLCANIC ROCK;TRACHYDACITE;;;;;;;;;;MINERAL / COMPONENT (INCL. GROUNDMASS);ZIRCON;HA2@12;;;PRIMARY;;;;;;;;;;;;;;;;;;;;;;;;;;;;;;;;;;;;;;;;;;;;;;;;;;;;;;;;;;;;;;;;;;;;;;;;;;;;;;;;;;;;;;;;;;;;;;;;;;;;;;;;;;;;;;;;;;;;;;;;;;;;;;;;;;;;;;;;;;;;;;;;;;;;;;;;;;;;;;;;;;;;;;;;;;;;;;;100;SIMS;;;167;;;;;;;;;;;;;;;;;0.05167;;;;;;;;;;;;;;;;0.0457;0.32554;;;;;;;;;;;;;;;;;;;;;;;;;;;;;;;;;;;;;;;288;PB206_U238 AGE;;;;;;
2016;[19999] SHANG-GUAN SHI-MAI (2016);samp. HA2-5379;;TARIM LARGE IGNEOUS PROVINCE / XINJIANG PROVINCE;HALAHATANG, HA2 WELL;41.3336;83.3458;41.3336;83.3458;;;DRILL HOLE ;;;SUBAERIAL;VOLCANIC ROCK;TRACHYDACITE;;;;;;;;;;MINERAL / COMPONENT (INCL. GROUNDMASS);ZIRCON;HA2@13;;;PRIMARY;;;;;;;;;;;;;;;;;;;;;;;;;;;;;;;;;;;;;;;;;;;;;;;;;;;;;;;;;;;;;;;;;;;;;;;;;;;;;;;;;;;;;;;;;;;;;;;;;;;;;;;;;;;;;;;;;;;;;;;;;;;;;;;;;;;;;;;;;;;;;;;;;;;;;;;;;;;;;;;;;;;;;;;;;;;;;;;61;SIMS;;;101;;;;;;;;;;;;;;;;;0.05128;;;;;;;;;;;;;;;;0.0446;0.31539;;;;;;;;;;;;;;;;;;;;;;;;;;;;;;;;;;;;;;;281.3;PB206_U238 AGE;;;;;;
2016;[19999] SHANG-GUAN SHI-MAI (2016);samp. HA2-5379;;TARIM LARGE IGNEOUS PROVINCE / XINJIANG PROVINCE;HALAHATANG, HA2 WELL;41.3336;83.3458;41.3336;83.3458;;;DRILL HOLE ;;;SUBAERIAL;VOLCANIC ROCK;TRACHYDACITE;;;;;;;;;;MINERAL / COMPONENT (INCL. GROUNDMASS);ZIRCON;HA2@14;;;PRIMARY;;;;;;;;;;;;;;;;;;;;;;;;;;;;;;;;;;;;;;;;;;;;;;;;;;;;;;;;;;;;;;;;;;;;;;;;;;;;;;;;;;;;;;;;;;;;;;;;;;;;;;;;;;;;;;;;;;;;;;;;;;;;;;;;;;;;;;;;;;;;;;;;;;;;;;;;;;;;;;;;;;;;;;;;;;;;;;;43;SIMS;;;57;;;;;;;;;;;;;;;;;0.05412;;;;;;;;;;;;;;;;0.0464;0.34646;;;;;;;;;;;;;;;;;;;;;;;;;;;;;;;;;;;;;;;292.6;PB206_U238 AGE;;;;;;
2016;[19999] SHANG-GUAN SHI-MAI (2016);samp. HA2-5379;;TARIM LARGE IGNEOUS PROVINCE / XINJIANG PROVINCE;HALAHATANG, HA2 WELL;41.3336;83.3458;41.3336;83.3458;;;DRILL HOLE ;;;SUBAERIAL;VOLCANIC ROCK;TRACHYDACITE;;;;;;;;;;MINERAL / COMPONENT (INCL. GROUNDMASS);ZIRCON;HA2@15;;;PRIMARY;;;;;;;;;;;;;;;;;;;;;;;;;;;;;;;;;;;;;;;;;;;;;;;;;;;;;;;;;;;;;;;;;;;;;;;;;;;;;;;;;;;;;;;;;;;;;;;;;;;;;;;;;;;;;;;;;;;;;;;;;;;;;;;;;;;;;;;;;;;;;;;;;;;;;;;;;;;;;;;;;;;;;;;;;;;;;;;62;SIMS;;;106;;;;;;;;;;;;;;;;;0.04957;;;;;;;;;;;;;;;;0.045;0.30734;;;;;;;;;;;;;;;;;;;;;;;;;;;;;;;;;;;;;;;283.6;PB206_U238 AGE;;;;;;
2016;[19999] SHANG-GUAN SHI-MAI (2016);samp. HA2-5379;;TARIM LARGE IGNEOUS PROVINCE / XINJIANG PROVINCE;HALAHATANG, HA2 WELL;41.3336;83.3458;41.3336;83.3458;;;DRILL HOLE ;;;SUBAERIAL;VOLCANIC ROCK;TRACHYDACITE;;;;;;;;;;MINERAL / COMPONENT (INCL. GROUNDMASS);ZIRCON;HA2@16;;;PRIMARY;;;;;;;;;;;;;;;;;;;;;;;;;;;;;;;;;;;;;;;;;;;;;;;;;;;;;;;;;;;;;;;;;;;;;;;;;;;;;;;;;;;;;;;;;;;;;;;;;;;;;;;;;;;;;;;;;;;;;;;;;;;;;;;;;;;;;;;;;;;;;;;;;;;;;;;;;;;;;;;;;;;;;;;;;;;;;;;54;SIMS;;;101;;;;;;;;;;;;;;;;;0.04988;;;;;;;;;;;;;;;;0.0466;0.32014;;;;;;;;;;;;;;;;;;;;;;;;;;;;;;;;;;;;;;;293.3;PB206_U238 AGE;;;;;;
2016;[19999] SHANG-GUAN SHI-MAI (2016);samp. HA2-5379;;TARIM LARGE IGNEOUS PROVINCE / XINJIANG PROVINCE;HALAHATANG, HA2 WELL;41.3336;83.3458;41.3336;83.3458;;;DRILL HOLE ;;;SUBAERIAL;VOLCANIC ROCK;TRACHYDACITE;;;;;;;;;;MINERAL / COMPONENT (INCL. GROUNDMASS);ZIRCON;HA2@17;;;PRIMARY;;;;;;;;;;;;;;;;;;;;;;;;;;;;;;;;;;;;;;;;;;;;;;;;;;;;;;;;;;;;;;;;;;;;;;;;;;;;;;;;;;;;;;;;;;;;;;;;;;;;;;;;;;;;;;;;;;;;;;;;;;;;;;;;;;;;;;;;;;;;;;;;;;;;;;;;;;;;;;;;;;;;;;;;;;;;;;;76;SIMS;;;124;;;;;;;;;;;;;;;;;0.05314;;;;;;;;;;;;;;;;0.0449;0.32889;;;;;;;;;;;;;;;;;;;;;;;;;;;;;;;;;;;;;;;283.1;PB206_U238 AGE;;;;;;
2016;[19999] SHANG-GUAN SHI-MAI (2016);samp. HA2-5379;;TARIM LARGE IGNEOUS PROVINCE / XINJIANG PROVINCE;HALAHATANG, HA2 WELL;41.3336;83.3458;41.3336;83.3458;;;DRILL HOLE ;;;SUBAERIAL;VOLCANIC ROCK;TRACHYDACITE;;;;;;;;;;MINERAL / COMPONENT (INCL. GROUNDMASS);ZIRCON;HA2@18;;;PRIMARY;;;;;;;;;;;;;;;;;;;;;;;;;;;;;;;;;;;;;;;;;;;;;;;;;;;;;;;;;;;;;;;;;;;;;;;;;;;;;;;;;;;;;;;;;;;;;;;;;;;;;;;;;;;;;;;;;;;;;;;;;;;;;;;;;;;;;;;;;;;;;;;;;;;;;;;;;;;;;;;;;;;;;;;;;;;;;;;49;SIMS;;;86;;;;;;;;;;;;;;;;;0.05247;;;;;;;;;;;;;;;;0.045;0.32528;;;;;;;;;;;;;;;;;;;;;;;;;;;;;;;;;;;;;;;283.5;PB206_U238 AGE;;;;;;
2016;[20008] GAO XIN-YU (2016);samp. JGT-1;;CENTRAL ASIAN FOLDBELT - MESOZOIC / CHINA - MESOZOIC / ANHUI PROVINCE;JINGANGTAI, NORTH HUAIYANG;31.75;115.75;31.75;115.75;;;OUTCROP;;;SUBAERIAL;VOLCANIC ROCK;TRACHYDACITE;;;;;CRETACEOUS;LOWER;;;;WHOLE ROCK;;;;;;;;;;;;;67.96;0.39;;;15.77;;;;;;;;;2.78;;;;1.77;0.66;0.05;;;;;;;5.66;XRF;;;3.12;0.09;;;;;;;;;;;;;;1.19;;;;;;;;;;;;;;;;;;;;;;;;;;;;;;;;;;19;;;;3.87;;;;;;;;137;ICPMS;;;559;ICPMS;;;19.9;ICPMS;;;240;ICPMS;;;13.7;ICPMS;;;;;;;;;;;;;;2150;ICPMS;;;50.9;ICPMS;;;84.6;ICPMS;;;9.32;30.7;ICPMS;;;5.05;ICPMS;;;1.17;4.13;0.64;3.15;0.61;1.97;0.27;1.85;0.27;5.83;0.94;;;;;;;;;;;;;;19.4;ICPMS;;;4.02;0.511624;;;;0.1044;0.709842;;;;0.6922;;;;;;;;;;;;;;;;;;;;;;;;;;;;;;;;;;;;;;;;;;;;;;;;;;;;;;;;;;;;;;;;;;;;;;
2016;[20008] GAO XIN-YU (2016);samp. JGT-2;;CENTRAL ASIAN FOLDBELT - MESOZOIC / CHINA - MESOZOIC / ANHUI PROVINCE;JINGANGTAI, NORTH HUAIYANG;31.75;115.75;31.75;115.75;;;OUTCROP;;;SUBAERIAL;VOLCANIC ROCK;TRACHYDACITE;;;;;CRETACEOUS;LOWER;;;;WHOLE ROCK;;;;;;;;;;;;;62.17;0.69;;;15.45;;;;;;;;;6.09;;;;4.57;2.09;0.1;;;;;;;2.27;XRF;;;3.95;0.27;;;;;;;;;;;;;;1.82;;;;;;;;;;;;;;;;;;;;;;;;;;;;;;;;;;45.7;;;;23.2;;;;;;;;49.4;ICPMS;;;708;ICPMS;;;17.4;ICPMS;;;136;ICPMS;;;10.5;ICPMS;;;;;;;;;;;;;;1220;ICPMS;;;46.9;ICPMS;;;83.4;ICPMS;;;9.54;32.7;ICPMS;;;5.53;ICPMS;;;1.4;4.38;0.64;2.86;0.55;1.63;0.21;1.37;0.2;3.45;0.72;;;;;;;;;;;;;;13;ICPMS;;;2.61;0.511614;;;;0.1073;0.708292;;;;0.1971;;;;;;;;;;;;;;;;;;;;;;;;;;;;;;;;;;;;;;;;;;;;;;;;;;;;;;;;;;;;;;;;;;;;;;
2016;[20008] GAO XIN-YU (2016);samp. JGT-4;;CENTRAL ASIAN FOLDBELT - MESOZOIC / CHINA - MESOZOIC / ANHUI PROVINCE;JINGANGTAI, NORTH HUAIYANG;31.75;115.75;31.75;115.75;;;OUTCROP;;;SUBAERIAL;VOLCANIC ROCK;TRACHYDACITE;;;;;CRETACEOUS;LOWER;;;;WHOLE ROCK;;;;;;;;;;;;;65.18;0.54;;;15.69;;;;;;;;;4.05;;;;2.66;1.6;0.06;;;;;;;4.3;XRF;;;3.82;0.15;;;;;;;;;;;;;;1.38;;;;;;;;;;;;;;;;;;;;;;;;;;;;;;;;;;30.6;;;;10.8;;;;;;;;111;ICPMS;;;437;ICPMS;;;19.5;ICPMS;;;213;ICPMS;;;12.3;ICPMS;;;;;;;;;;;;;;1640;ICPMS;;;56.4;ICPMS;;;94.8;ICPMS;;;10.5;34.8;ICPMS;;;5.37;ICPMS;;;1.22;4.34;0.65;3.03;0.58;1.86;0.25;1.63;0.25;5.26;0.86;;;;;;;;;;;;;;19.7;ICPMS;;;3.43;0.511578;;;;0.0979;0.709644;;;;0.7174;;;;;;;;;;;;;;;;;;;;;;;;;;;;;;;;;;;;;;;;;;;;;;;;;;;;;;;;;;;;;;;;;;;;;;
2016;[20008] GAO XIN-YU (2016);samp. JGT-10;;CENTRAL ASIAN FOLDBELT - MESOZOIC / CHINA - MESOZOIC / ANHUI PROVINCE;JINGANGTAI, NORTH HUAIYANG;31.75;115.75;31.75;115.75;;;OUTCROP;;;SUBAERIAL;VOLCANIC ROCK;TRACHYDACITE;;;;;CRETACEOUS;LOWER;;;;WHOLE ROCK;;;;;;;;;;;;;63.2;0.7;;;15.6;;;;;;;;;5.31;;;;2.92;2.33;0.07;;;;;;;4.03;XRF;;;4.04;0.25;;;;;;;;;;;;;;0.99;;;;;;;;;;;;;;;;;;;;;;;;;;;;;;;;;;45.3;;;;17.4;;;;;;;;100;ICPMS;;;854;ICPMS;;;18.2;ICPMS;;;189;ICPMS;;;12;ICPMS;;;;;;;;;;;;;;1640;ICPMS;;;52.4;ICPMS;;;93.4;ICPMS;;;10.6;35.9;ICPMS;;;6.03;ICPMS;;;1.39;4.68;0.67;3.04;0.56;1.7;0.21;1.4;0.2;4.41;0.68;;;;;;;;;;;;;;13.4;ICPMS;;;2.45;;;;;;;;;;;;;;;;;;;;;;;;;;;;;;;;;;;;;;;;;;;;;;;;;;;;;;;;;;;;;;;;;;;;;;;;;;;;;;;;
2016;[20008] GAO XIN-YU (2016);samp. JGT-15;;CENTRAL ASIAN FOLDBELT - MESOZOIC / CHINA - MESOZOIC / ANHUI PROVINCE;JINGANGTAI, NORTH HUAIYANG;31.75;115.75;31.75;115.75;;;OUTCROP;;;SUBAERIAL;VOLCANIC ROCK;TRACHYDACITE;;;;;CRETACEOUS;LOWER;;;;WHOLE ROCK;;;;;;;;;;;;;67.87;0.57;;;16.01;;;;;;;;;2.49;;;;1.45;0.67;0.06;;;;;;;5.42;XRF;;;4.3;0.11;;;;;;;;;;;;;;0.46;;;;;;;;;;;;;;;;;;;;;;;;;;;;;;;;;;18.2;;;;3.39;;;;;;;;155;ICPMS;;;341;ICPMS;;;23.8;ICPMS;;;363;ICPMS;;;18.5;ICPMS;;;;;;;;;;;;;;1740;ICPMS;;;58.8;ICPMS;;;100;ICPMS;;;11.5;39.3;ICPMS;;;6.87;ICPMS;;;1.5;5.18;0.81;3.78;0.75;2.3;0.31;2.06;0.31;8;1;;;;;;;;;;;;;;17.2;ICPMS;;;3.27;0.511748;;;;0.1109;0.710347;;;;1.2839;;;;;;;;;;;;;;;;;;;;;;;;;;;;;;;;;;;;;;;;;;;;;;;;;;;;;;;;;;;;;;;;;;;;;;
2016;[20008] GAO XIN-YU (2016);samp. JGT-18;;CENTRAL ASIAN FOLDBELT - MESOZOIC / CHINA - MESOZOIC / ANHUI PROVINCE;JINGANGTAI, NORTH HUAIYANG;31.75;115.75;31.75;115.75;;;OUTCROP;;;SUBAERIAL;VOLCANIC ROCK;TRACHYDACITE;;;;;CRETACEOUS;LOWER;;;;WHOLE ROCK;;;;;;;;;;;;;67.88;0.58;;;15.95;;;;;;;;;2.43;;;;1.44;0.61;0.06;;;;;;;5.61;XRF;;;4.45;0.11;;;;;;;;;;;;;;0.3;;;;;;;;;;;;;;;;;;;;;;;;;;;;;;;;;;20.2;;;;3.36;;;;;;;;163;ICPMS;;;323;ICPMS;;;25.4;ICPMS;;;366;ICPMS;;;18.5;ICPMS;;;;;;;;;;;;;;1730;ICPMS;;;61.8;ICPMS;;;105;ICPMS;;;12;40.8;ICPMS;;;6.76;ICPMS;;;1.46;5.46;0.84;4.02;0.76;2.31;0.31;2.02;0.31;7.61;0.91;;;;;;;;;;;;;;16.4;ICPMS;;;3.21;;;;;;;;;;;;;;;;;;;;;;;;;;;;;;;;;;;;;;;;;;;;;;;;;;;;;;;;;;;;;;;;;;;;;;;;;;;;;;;;
2016;[20008] GAO XIN-YU (2016);samp. JGT-19;;CENTRAL ASIAN FOLDBELT - MESOZOIC / CHINA - MESOZOIC / ANHUI PROVINCE;JINGANGTAI, NORTH HUAIYANG;31.75;115.75;31.75;115.75;;;OUTCROP;;;SUBAERIAL;VOLCANIC ROCK;TRACHYDACITE;;;;;CRETACEOUS;LOWER;;;;WHOLE ROCK;;;;;;;;;;;;;67.53;0.58;;;16.12;;;;;;;;;2.51;;;;1.37;0.63;0.06;;;;;;;5.57;XRF;;;4.48;0.11;;;;;;;;;;;;;;0.46;;;;;;;;;;;;;;;;;;;;;;;;;;;;;;;;;;19.9;;;;3.32;;;;;;;;157;ICPMS;;;367;ICPMS;;;23.9;ICPMS;;;365;ICPMS;;;18.5;ICPMS;;;;;;;;;;;;;;1940;ICPMS;;;57.6;ICPMS;;;102;ICPMS;;;11.5;38.4;ICPMS;;;6.59;ICPMS;;;1.48;5.01;0.8;3.73;0.72;2.14;0.29;1.97;0.28;7.35;1.03;;;;;;;;;;;;;;15.8;ICPMS;;;3.03;0.511754;;;;0.1089;0.71017;;;;1.2083;;;;;;;;;;;;;;;;;;;;;;;;;;;;;;;;;;;;;;;;;;;;;;;;;;;;;;;;;;;;;;;;;;;;;;
2016;[20008] GAO XIN-YU (2016);samp. JGT-20;;CENTRAL ASIAN FOLDBELT - MESOZOIC / CHINA - MESOZOIC / ANHUI PROVINCE;JINGANGTAI, NORTH HUAIYANG;31.75;115.75;31.75;115.75;;;OUTCROP;;;SUBAERIAL;VOLCANIC ROCK;TRACHYDACITE;;;;;CRETACEOUS;LOWER;;;;WHOLE ROCK;;;;;;;;;;;;;67.62;0.59;;;16.04;;;;;;;;;2.51;;;;1.52;0.64;0.06;;;;;;;5.57;XRF;;;4.4;0.11;;;;;;;;;;;;;;0.35;;;;;;;;;;;;;;;;;;;;;;;;;;;;;;;;;;18.5;;;;3.42;;;;;;;;158;ICPMS;;;339;ICPMS;;;24.2;ICPMS;;;367;ICPMS;;;18.8;ICPMS;;;;;;;;;;;;;;1730;ICPMS;;;58.9;ICPMS;;;102;ICPMS;;;11.6;38.9;ICPMS;;;6.67;ICPMS;;;1.5;5.24;0.8;3.86;0.74;2.22;0.3;2.03;0.29;7.5;1.03;;;;;;;;;;;;;;15.5;ICPMS;;;2.98;;;;;;;;;;;;;;;;;;;;;;;;;;;;;;;;;;;;;;;;;;;;;;;;;;;;;;;;;;;;;;;;;;;;;;;;;;;;;;;;
2016;[20008] GAO XIN-YU (2016);samp. JGT-23;;CENTRAL ASIAN FOLDBELT - MESOZOIC / CHINA - MESOZOIC / ANHUI PROVINCE;JINGANGTAI, NORTH HUAIYANG;31.75;115.75;31.75;115.75;;;OUTCROP;;;SUBAERIAL;VOLCANIC ROCK;TRACHYDACITE;;;;;CRETACEOUS;LOWER;;;;WHOLE ROCK;;;;;;;;;;;;;65.91;0.45;;;14.63;;;;;;;;;3.25;;;;2.81;1.48;0.06;;;;;;;4.28;XRF;;;3.45;0.18;;;;;;;;;;;;;;3.05;;;;;;;;;;;;;;;;;;;;;;;;;;;;;;;;;;37.4;;;;14.2;;;;;;;;130;ICPMS;;;351;ICPMS;;;13.3;ICPMS;;;164;ICPMS;;;11.4;ICPMS;;;;;;;;;;;;;;1150;ICPMS;;;42.2;ICPMS;;;71.1;ICPMS;;;7.39;23.7;ICPMS;;;3.92;ICPMS;;;0.99;3.08;0.45;2.04;0.39;1.22;0.16;1.05;0.16;3.55;0.75;;;;;;;;;;;;;;15.7;ICPMS;;;2.93;;;;;;;;;;;;;;;;;;;;;;;;;;;;;;;;;;;;;;;;;;;;;;;;;;;;;;;;;;;;;;;;;;;;;;;;;;;;;;;;
2016;[20008] GAO XIN-YU (2016);samp. JGT-24;;CENTRAL ASIAN FOLDBELT - MESOZOIC / CHINA - MESOZOIC / ANHUI PROVINCE;JINGANGTAI, NORTH HUAIYANG;31.75;115.75;31.75;115.75;;;OUTCROP;;;SUBAERIAL;VOLCANIC ROCK;TRACHYDACITE;;;;;CRETACEOUS;LOWER;;;;WHOLE ROCK;;;;;;;;;;;;;66.64;0.42;;;14.38;;;;;;;;;2.94;;;;2.29;1.35;0.05;;;;;;;4.25;XRF;;;3.88;0.16;;;;;;;;;;;;;;3.18;;;;;;;;;;;;;;;;;;;;;;;;;;;;;;;;;;35.1;;;;14.3;;;;;;;;123;ICPMS;;;356;ICPMS;;;13.2;ICPMS;;;152;ICPMS;;;11.3;ICPMS;;;;;;;;;;;;;;1290;ICPMS;;;43.9;ICPMS;;;72.1;ICPMS;;;7.55;24.5;ICPMS;;;4.06;ICPMS;;;0.95;3.04;0.46;2.08;0.39;1.22;0.16;1.09;0.16;3.44;0.82;;;;;;;;;;;;;;16.4;ICPMS;;;2.74;;;;;;;;;;;;;;;;;;;;;;;;;;;;;;;;;;;;;;;;;;;;;;;;;;;;;;;;;;;;;;;;;;;;;;;;;;;;;;;;
2016;[20008] GAO XIN-YU (2016);samp. JGT-28;;CENTRAL ASIAN FOLDBELT - MESOZOIC / CHINA - MESOZOIC / ANHUI PROVINCE;JINGANGTAI, NORTH HUAIYANG;31.75;115.75;31.75;115.75;;;OUTCROP;;;SUBAERIAL;VOLCANIC ROCK;TRACHYDACITE;;;;;CRETACEOUS;LOWER;;;;WHOLE ROCK;;;;;;;;;;;;;66.64;0.58;;;15.8;;;;;;;;;2.72;;;;2;0.98;0.07;;;;;;;5.31;XRF;;;4.4;0.12;;;;;;;;;;;;;;0.82;;;;;;;;;;;;;;;;;;;;;;;;;;;;;;;;;;21.4;;;;5.4;;;;;;;;143;ICPMS;;;371;ICPMS;;;23.4;ICPMS;;;343;ICPMS;;;17.6;ICPMS;;;;;;;;;;;;;;1680;ICPMS;;;54.6;ICPMS;;;98.7;ICPMS;;;11.1;37.5;ICPMS;;;6.45;ICPMS;;;1.44;5.06;0.79;3.75;0.72;2.17;0.29;1.9;0.28;7.25;0.77;;;;;;;;;;;;;;15;ICPMS;;;2.68;;;;;;;;;;;;;;;;;;;;;;;;;;;;;;;;;;;;;;;;;;;;;;;;;;;;;;;;;;;;;;;;;;;;;;;;;;;;;;;;
2016;[20008] GAO XIN-YU (2016);samp. JGT-29;;CENTRAL ASIAN FOLDBELT - MESOZOIC / CHINA - MESOZOIC / ANHUI PROVINCE;JINGANGTAI, NORTH HUAIYANG;31.75;115.75;31.75;115.75;;;OUTCROP;;;SUBAERIAL;VOLCANIC ROCK;TRACHYDACITE;;;;;CRETACEOUS;LOWER;;;;WHOLE ROCK;;;;;;;;;;;;;67.21;0.57;;;15.77;;;;;;;;;2.54;;;;1.89;0.85;0.07;;;;;;;5.5;XRF;;;4.44;0.11;;;;;;;;;;;;;;0.45;;;;;;;;;;;;;;;;;;;;;;;;;;;;;;;;;;22.3;;;;5.98;;;;;;;;152;ICPMS;;;330;ICPMS;;;23.2;ICPMS;;;330;ICPMS;;;17;ICPMS;;;;;;;;;;;;;;1550;ICPMS;;;56.9;ICPMS;;;103;ICPMS;;;11.3;38.1;ICPMS;;;6.34;ICPMS;;;1.39;4.86;0.79;3.7;0.71;2.12;0.29;1.96;0.29;7.64;1.04;;;;;;;;;;;;;;17.3;ICPMS;;;3.4;;;;;;;;;;;;;;;;;;;;;;;;;;;;;;;;;;;;;;;;;;;;;;;;;;;;;;;;;;;;;;;;;;;;;;;;;;;;;;;;