Year;CITATION;SAMPLE NAME;UNIQUE_ID;LOCATION;LOCATION COMMENT;LATITUDE (MIN.);LONGITUDE (MIN.);LATITUDE (MAX.);LONGITUDE (MAX.);ELEVATION (MIN.);ELEVATION (MAX.);SAMPLING TECHNIQUE;DRILLING DEPTH (MIN.);DRILLING DEPTH (MAX.);LAND/SEA (SAMPLING);ROCK TYPE;ROCK NAME;ROCK TEXTURE;SAMPLE COMMENT;AGE (MIN.);AGE (MAX.);GEOLOGICAL AGE;GEOLOGICAL AGE PREFIX;ERUPTION YEAR;ALTERATION;ALTERATION TYPE;TYPE OF MATERIAL;MINERAL / COMPONENT;SPOT (MINERAL);CRYSTAL;RIM / CORE (MINERAL GRAINS);PRIMARY/SECONDARY;INCLUSION TYPE;SPOT (INCLUSION);MINERAL (INCLUSION);RIM / CORE (INCLUSION);HOSTMINERAL (INCLUSION);HEATING;HEATING TEMPERATURE (?C);SIO2(WT%);TIO2(WT%);ZRO2(WT%);B2O3(WT%);AL2O3(WT%);CR2O3(WT%);LA2O3(WT%);CE2O3(WT%);Y2O3(WT%);V2O3(WT%);NB2O3(WT%);TA2O5(WT%);WO3(WT%);FE2O3T(WT%);FE2O3(WT%);FEOT(WT%);FEO(WT%);CAO(WT%);MGO(WT%);MNO(WT%);BAO(WT%);SRO(WT%);NIO(WT%);ZNO(WT%);CS2O(WT%);RB2O(WT%);K2O(WT%);;;;NA2O(WT%);P2O5(WT%);H2O(WT%);;;;H2OP(WT%);H2OM(WT%);CO2(WT%);C(WT%);F(WT%);CL(WT%);SO2(WT%);SO3(WT%);S(WT%);LOI(WT%);AL(WT%);TI(WT%);FE(WT%);MG(WT%);CA(WT%);K(WT%);NA(WT%);LI(PPM);BE(PPM);B(PPM);C(PPM);F(PPM);NA(PPM);MG(PPM);AL(PPM);P(PPM);S(PPM);CL(PPM);AR40(AT/G);AR40(CCMSTP/G);AR40(MOL/G);AR40(PPB);K(PPM);CA(PPM);SC(PPM);;;;TI(PPM);;;;V(PPM);CR(PPM);MN(PPM);FE(PPM);CO(PPM);NI(PPM);CU(PPM);ZN(PPM);GA(PPM);GE(PPM);AS(PPM);SE(PPM);BR(PPM);RB(PPM): altern. values or methods;;;;SR(PPM): altern. values or methods;;;;Y(PPM): altern. values or methods;;;;ZR(PPM): altern. values or methods;;;;NB(PPM): altern. values or methods;;;;MO(PPM): altern. values or methods;;;;AG(PPM);CD(PPM);IN(PPM);SN(PPM);SB(PPM);TE(PPM);CS(PPM);BA(PPM): altern. values or methods;;;;LA(PPM): altern. values or methods;;;;CE(PPM): altern. values or methods;;;;PR(PPM);ND(PPM): altern. values or methods;;;;SM(PPM): altern. values or methods;;;;EU(PPM);GD(PPM);TB(PPM);DY(PPM);HO(PPM);ER(PPM);TM(PPM);YB(PPM);LU(PPM);HF(PPM);TA(PPM);W(PPM);RE(PPM);AU(PPM);AU(PPB);HG(PPM);HG(PPB);TL(PPM);PB(PPM): altern. values or methods;;;;PB206(PPM);BI(PPM);TH(PPM): altern. values or methods;;;;U(PPM);ND143_ND144;ND143_ND144_INI;EPSILON_ND;EPSILON_ND_INI;SM147_ND144;SR87_SR86;SR87_SR86_INI;EPSILON_SR;EPSILON_SR_INI;RB87_SR86;PB206_PB204;PB206_PB204_INI;PB206_PB207;PB206_PB208;PB207_PB204;PB207_PB204_INI;PB207_PB206;PB208_PB204;PB208_PB204_INI;PB208_PB206;HF176_HF177;HF176_HF177_INI;EPSILON_HF_INI;LU176_HF177;YB176_HF177;AR36_AR39;AR36_AR40;AR37_AR39;AR38_AR39;AR39_AR40;AR40_AR36;AR40_AR39;PB206_U238;PB207_U235;PB208_TH232;TH232_PB204;TH232_U238;U235_PB204;U238_PB204;U238_PB206;D7LI(VS LSVEC);D18O(PER MIL);D18O(VS SMOW);D18O(VS VSMOW);D56FE(VS IRMM-014);D57FE(VS IRMM-014);DD(VS SMOW);ALBITE(MOL%);ANORTHITE(MOL%);CA OLIVINE(MOL%);ENSTATITE(MOL%);FAYALITE(MOL%);FORSTERITE(MOL%);FERROSILITE(MOL%);ORTHOCLASE(MOL%);TEPHROITE(MOL%);ULVOSPINEL(MOL%);WOLLASTONITE(MOL%);AGE(KA): altern. values or methods;;;;AGE(MA): altern. values or methods;;;;;;;;AGE_PB207_PB206(MA);AGE_PB207_U235(MA);AGE_PB206_U238(MA): altern. values or methods;;;;;;AGE_PB208_TH232(MA);
2014;[18586] BACHMANN O. (2014);samp. CRT09-10C;;NORTH AMERICAN CORDILLERA - CENOZOIC/QUATERNARY / CORDILLERA UNITED STATES / COLORADO / SAN JUAN VOLCANIC FIELD / CARPENTER RIDGE TUFF;BACHELOR CALDERA, SOUTHERN EDGE OF CARPENTER RODGE;37.5;-106;38.5;-107.5;;;OUTCROP;;;SUBAERIAL;VOLCANIC ROCK;TRACHYDACITE;;CRYSTAL-RICH MATERIAL, WELDED TOP;27600000;27600000;OLIGOCENE;;;;;MINERAL / COMPONENT (INCL. GROUNDMASS);SANIDINE;CRT 09-10C SAN 1 LS1;;;PRIMARY;;;;;;;;64.9;;;;18.07;;;;;;;;;;;0.1026;;0.216;;;0.7719;;;;;;11.35;EMP (EPMA);;;3.56;;;;;;;;;;;;;;;;;;;;;;;;;;;;;;;;;;;;;;;;;;;;;;;;;;;;;;;;;;;;;;;;;;;;;;;;;;;;;;;;;;;;;;;;;;;;;;;;;;;;;;;;;;;;;;;;;;;;;;;;;;;;;;;;;;;;;;;;;;;;;;;;;;;;;;;;;;;;;;;;;;;;;;;;;;;;;;;;;;;;;;;;;;;;;31.4442681439109;1.05432630399792;;;;;;65.9628571251803;;;;;;;;;;;;;;;;;;;;;;;;;
2014;[18586] BACHMANN O. (2014);samp. CRT09-10C;;NORTH AMERICAN CORDILLERA - CENOZOIC/QUATERNARY / CORDILLERA UNITED STATES / COLORADO / SAN JUAN VOLCANIC FIELD / CARPENTER RIDGE TUFF;BACHELOR CALDERA, SOUTHERN EDGE OF CARPENTER RODGE;37.5;-106;38.5;-107.5;;;OUTCROP;;;SUBAERIAL;VOLCANIC ROCK;TRACHYDACITE;;CRYSTAL-RICH MATERIAL, WELDED TOP;27600000;27600000;OLIGOCENE;;;;;MINERAL / COMPONENT (INCL. GROUNDMASS);SANIDINE;CRT 09-10C SAN 1 LS1;;;PRIMARY;;;;;;;;65.08;;;;18.21;;;;;;;;;;;0.0932;;0.2369;;;0.8049;;;;;;10.97;EMP (EPMA);;;3.4;;;;;;;;;;;;;;;;;;;;;;;;;;;;;;;;;;;;;;;;;;;;;;;;;;;;;;;;;;;;;;;;;;;;;;;;;;;;;;;;;;;;;;;;;;;;;;;;;;;;;;;;;;;;;;;;;;;;;;;;;;;;;;;;;;;;;;;;;;;;;;;;;;;;;;;;;;;;;;;;;;;;;;;;;;;;;;;;;;;;;;;;;;;;;31.1053860304851;1.1977096165923;;;;;;66.0351866664574;;;;;;;;;;;;;;;;;;;;;;;;;
2014;[18586] BACHMANN O. (2014);samp. CRT09-10C;;NORTH AMERICAN CORDILLERA - CENOZOIC/QUATERNARY / CORDILLERA UNITED STATES / COLORADO / SAN JUAN VOLCANIC FIELD / CARPENTER RIDGE TUFF;BACHELOR CALDERA, SOUTHERN EDGE OF CARPENTER RODGE;37.5;-106;38.5;-107.5;;;OUTCROP;;;SUBAERIAL;VOLCANIC ROCK;TRACHYDACITE;;CRYSTAL-RICH MATERIAL, WELDED TOP;27600000;27600000;OLIGOCENE;;;;;MINERAL / COMPONENT (INCL. GROUNDMASS);SANIDINE;CRT 09-10C SAN 1 LS1;;;PRIMARY;;;;;;;;64.16;;;;17.88;;;;;;;;;;;0.119;;0.2759;;;0.7019;;;;;;11.07;EMP (EPMA);;;3.5;;;;;;;;;;;;;;;;;;;;;;;;;;;;;;;;;;;;;;;;;;;;;;;;;;;;;;;;;;;;;;;;;;;;;;;;;;;;;;;;;;;;;;;;;;;;;;;;;;;;;;;;;;;;;;;;;;;;;;;;;;;;;;;;;;;;;;;;;;;;;;;;;;;;;;;;;;;;;;;;;;;;;;;;;;;;;;;;;;;;;;;;;;;;;31.5466229473174;1.37425184461551;;;;;;65.6514852017535;;;;;;;;;;;;;;;;;;;;;;;;;
2014;[18586] BACHMANN O. (2014);samp. CRT09-10C;;NORTH AMERICAN CORDILLERA - CENOZOIC/QUATERNARY / CORDILLERA UNITED STATES / COLORADO / SAN JUAN VOLCANIC FIELD / CARPENTER RIDGE TUFF;BACHELOR CALDERA, SOUTHERN EDGE OF CARPENTER RODGE;37.5;-106;38.5;-107.5;;;OUTCROP;;;SUBAERIAL;VOLCANIC ROCK;TRACHYDACITE;;CRYSTAL-RICH MATERIAL, WELDED TOP;27600000;27600000;OLIGOCENE;;;;;MINERAL / COMPONENT (INCL. GROUNDMASS);SANIDINE;CRT 09-10C SAN 1 LS1;;;PRIMARY;;;;;;;;65.21;;;;17.85;;;;;;;;;;;0.0933;;0.3424;;;0.7235;;;;;;11.46;EMP (EPMA);;;3.41;;;;;;;;;;;;;;;;;;;;;;;;;;;;;;;;;;;;;;;;;;;;;;;;;;;;;;;;;;;;;;;;;;;;;;;;;;;;;;;;;;;;;;;;;;;;;;;;;;;;;;;;;;;;;;;;;;;;;;;;;;;;;;;;;;;;;;;;;;;;;;;;;;;;;;;;;;;;;;;;;;;;;;;;;;;;;;;;;;;;;;;;;;;;;30.1691803069841;1.67406642015852;;;;;;66.7122906663628;;;;;;;;;;;;;;;;;;;;;;;;;
2014;[18586] BACHMANN O. (2014);samp. CRT09-10C;;NORTH AMERICAN CORDILLERA - CENOZOIC/QUATERNARY / CORDILLERA UNITED STATES / COLORADO / SAN JUAN VOLCANIC FIELD / CARPENTER RIDGE TUFF;BACHELOR CALDERA, SOUTHERN EDGE OF CARPENTER RODGE;37.5;-106;38.5;-107.5;;;OUTCROP;;;SUBAERIAL;VOLCANIC ROCK;TRACHYDACITE;;CRYSTAL-RICH MATERIAL, WELDED TOP;27600000;27600000;OLIGOCENE;;;;;MINERAL / COMPONENT (INCL. GROUNDMASS);SANIDINE;CRT 09-10C SAN 1 LS1;;;PRIMARY;;;;;;;;65.04;;;;17.58;;;;;;;;;;;0.0933;;0.2485;;;0.6399;;;;;;11.28;EMP (EPMA);;;3.47;;;;;;;;;;;;;;;;;;;;;;;;;;;;;;;;;;;;;;;;;;;;;;;;;;;;;;;;;;;;;;;;;;;;;;;;;;;;;;;;;;;;;;;;;;;;;;;;;;;;;;;;;;;;;;;;;;;;;;;;;;;;;;;;;;;;;;;;;;;;;;;;;;;;;;;;;;;;;;;;;;;;;;;;;;;;;;;;;;;;;;;;;;;;;31.054976219326;1.22901707511619;;;;;;66.4236795421265;;;;;;;;;;;;;;;;;;;;;;;;;
2014;[18586] BACHMANN O. (2014);samp. CRT09-10C;;NORTH AMERICAN CORDILLERA - CENOZOIC/QUATERNARY / CORDILLERA UNITED STATES / COLORADO / SAN JUAN VOLCANIC FIELD / CARPENTER RIDGE TUFF;BACHELOR CALDERA, SOUTHERN EDGE OF CARPENTER RODGE;37.5;-106;38.5;-107.5;;;OUTCROP;;;SUBAERIAL;VOLCANIC ROCK;TRACHYDACITE;;CRYSTAL-RICH MATERIAL, WELDED TOP;27600000;27600000;OLIGOCENE;;;;;MINERAL / COMPONENT (INCL. GROUNDMASS);SANIDINE;CRT 09-10C SAN 1 LS1;;;PRIMARY;;;;;;;;62.99;;;;17.4;;;;;;;;;;;0.1261;;0.2533;;;0.5892;;;;;;10.56;EMP (EPMA);;;3.37;;;;;;;;;;;;;;;;;;;;;;;;;;;;;;;;;;;;;;;;;;;;;;;;;;;;;;;;;;;;;;;;;;;;;;;;;;;;;;;;;;;;;;;;;;;;;;;;;;;;;;;;;;;;;;;;;;;;;;;;;;;;;;;;;;;;;;;;;;;;;;;;;;;;;;;;;;;;;;;;;;;;;;;;;;;;;;;;;;;;;;;;;;;;;31.8188710066356;1.3216603227426;;;;;;65.6040856807757;;;;;;;;;;;;;;;;;;;;;;;;;
2014;[18586] BACHMANN O. (2014);samp. CRT09-10C;;NORTH AMERICAN CORDILLERA - CENOZOIC/QUATERNARY / CORDILLERA UNITED STATES / COLORADO / SAN JUAN VOLCANIC FIELD / CARPENTER RIDGE TUFF;BACHELOR CALDERA, SOUTHERN EDGE OF CARPENTER RODGE;37.5;-106;38.5;-107.5;;;OUTCROP;;;SUBAERIAL;VOLCANIC ROCK;TRACHYDACITE;;CRYSTAL-RICH MATERIAL, WELDED TOP;27600000;27600000;OLIGOCENE;;;;;MINERAL / COMPONENT (INCL. GROUNDMASS);SANIDINE;CRT 09-10C SAN 1 LS1;;;PRIMARY;;;;;;;;65.47;;;;18.12;;;;;;;;;;;0.0722;;0.36;;;0.7894;;;;;;11.14;EMP (EPMA);;;3.59;;;;;;;;;;;;;;;;;;;;;;;;;;;;;;;;;;;;;;;;;;;;;;;;;;;;;;;;;;;;;;;;;;;;;;;;;;;;;;;;;;;;;;;;;;;;;;;;;;;;;;;;;;;;;;;;;;;;;;;;;;;;;;;;;;;;;;;;;;;;;;;;;;;;;;;;;;;;;;;;;;;;;;;;;;;;;;;;;;;;;;;;;;;;;31.7784337828426;1.76104453340855;;;;;;64.8836592790833;;;;;;;;;;;;;;;;;;;;;;;;;
2014;[18586] BACHMANN O. (2014);samp. CRT09-10C;;NORTH AMERICAN CORDILLERA - CENOZOIC/QUATERNARY / CORDILLERA UNITED STATES / COLORADO / SAN JUAN VOLCANIC FIELD / CARPENTER RIDGE TUFF;BACHELOR CALDERA, SOUTHERN EDGE OF CARPENTER RODGE;37.5;-106;38.5;-107.5;;;OUTCROP;;;SUBAERIAL;VOLCANIC ROCK;TRACHYDACITE;;CRYSTAL-RICH MATERIAL, WELDED TOP;27600000;27600000;OLIGOCENE;;;;;MINERAL / COMPONENT (INCL. GROUNDMASS);SANIDINE;CRT 09-10C SAN 1 LS1;;;PRIMARY;;;;;;;;64.82;;;;17.74;;;;;;;;;;;0.0862;;0.2453;;;0.6398;;;;;;11.34;EMP (EPMA);;;3.63;;;;;;;;;;;;;;;;;;;;;;;;;;;;;;;;;;;;;;;;;;;;;;;;;;;;;;;;;;;;;;;;;;;;;;;;;;;;;;;;;;;;;;;;;;;;;;;;;;;;;;;;;;;;;;;;;;;;;;;;;;;;;;;;;;;;;;;;;;;;;;;;;;;;;;;;;;;;;;;;;;;;;;;;;;;;;;;;;;;;;;;;;;;;;31.9221335546633;1.1920998431684;;;;;;65.6161044976846;;;;;;;;;;;;;;;;;;;;;;;;;
2014;[18586] BACHMANN O. (2014);samp. CRT09-10C;;NORTH AMERICAN CORDILLERA - CENOZOIC/QUATERNARY / CORDILLERA UNITED STATES / COLORADO / SAN JUAN VOLCANIC FIELD / CARPENTER RIDGE TUFF;BACHELOR CALDERA, SOUTHERN EDGE OF CARPENTER RODGE;37.5;-106;38.5;-107.5;;;OUTCROP;;;SUBAERIAL;VOLCANIC ROCK;TRACHYDACITE;;CRYSTAL-RICH MATERIAL, WELDED TOP;27600000;27600000;OLIGOCENE;;;;;MINERAL / COMPONENT (INCL. GROUNDMASS);SANIDINE;CRT 09-10C SAN 1 LS1;;;PRIMARY;;;;;;;;64.57;;;;17.42;;;;;;;;;;;0.0816;;0.2875;;;0.5193;;;;;;10.95;EMP (EPMA);;;3.38;;;;;;;;;;;;;;;;;;;;;;;;;;;;;;;;;;;;;;;;;;;;;;;;;;;;;;;;;;;;;;;;;;;;;;;;;;;;;;;;;;;;;;;;;;;;;;;;;;;;;;;;;;;;;;;;;;;;;;;;;;;;;;;;;;;;;;;;;;;;;;;;;;;;;;;;;;;;;;;;;;;;;;;;;;;;;;;;;;;;;;;;;;;;;31.1207035537146;1.46285187536742;;;;;;66.3374738359807;;;;;;;;;;;;;;;;;;;;;;;;;
2014;[18586] BACHMANN O. (2014);samp. CRT09-10C;;NORTH AMERICAN CORDILLERA - CENOZOIC/QUATERNARY / CORDILLERA UNITED STATES / COLORADO / SAN JUAN VOLCANIC FIELD / CARPENTER RIDGE TUFF;BACHELOR CALDERA, SOUTHERN EDGE OF CARPENTER RODGE;37.5;-106;38.5;-107.5;;;OUTCROP;;;SUBAERIAL;VOLCANIC ROCK;TRACHYDACITE;;CRYSTAL-RICH MATERIAL, WELDED TOP;27600000;27600000;OLIGOCENE;;;;;MINERAL / COMPONENT (INCL. GROUNDMASS);SANIDINE;CRT 09-10C SAN 1 LS1;;;PRIMARY;;;;;;;;66.29;;;;17.36;;;;;;;;;;;0.1238;;0.2664;;;0.4025;;;;;;10.84;EMP (EPMA);;;3.51;;;;;;;;;;;;;;;;;;;;;;;;;;;;;;;;;;;;;;;;;;;;;;;;;;;;;;;;;;;;;;;;;;;;;;;;;;;;;;;;;;;;;;;;;;;;;;;;;;;;;;;;;;;;;;;;;;;;;;;;;;;;;;;;;;;;;;;;;;;;;;;;;;;;;;;;;;;;;;;;;;;;;;;;;;;;;;;;;;;;;;;;;;;;;32.259423633454;1.35304893944782;;;;;;65.5527436347967;;;;;;;;;;;;;;;;;;;;;;;;;
2014;[18586] BACHMANN O. (2014);samp. CRT08-7;;NORTH AMERICAN CORDILLERA - CENOZOIC/QUATERNARY / CORDILLERA UNITED STATES / COLORADO / SAN JUAN VOLCANIC FIELD / CARPENTER RIDGE TUFF;BACHELOR CALDERA, NORTH OF BEAVER CREEK RESERVOIR;37.5;-106;38.5;-107.5;;;OUTCROP;;;SUBAERIAL;VOLCANIC ROCK;TRACHYDACITE;;GLASSY FIAMME;27600000;27600000;OLIGOCENE;;;;;MINERAL / COMPONENT (INCL. GROUNDMASS);BIOTITE;CRT08-7 BIO 2.2;;;PRIMARY;;;;;;;;34.28;5.08;;;13.98;;;;;;;;;;;13.12;;0.18;15.43;0.11;4.19;;;;;;6.8;EMP (EPMA);;;0.96;;;;;;;;;;4.47;0.04;;;;;;;;;;;;;;;;;;;;;;;;;;;;;;;;;;;;;;;;;;;;;;;;;;;;;;;;;;;;;;;;;;;;;;;;;;;;;;;;;;;;;;;;;;;;;;;;;;;;;;;;;;;;;;;;;;;;;;;;;;;;;;;;;;;;;;;;;;;;;;;;;;;;;;;;;;;;;;;;;;;;;;;;;;;;;;;;;;;;;;;;;;;;;;;;;;;;;;;;;;;;;;;;;;
2014;[18586] BACHMANN O. (2014);samp. CRT08-7;;NORTH AMERICAN CORDILLERA - CENOZOIC/QUATERNARY / CORDILLERA UNITED STATES / COLORADO / SAN JUAN VOLCANIC FIELD / CARPENTER RIDGE TUFF;BACHELOR CALDERA, NORTH OF BEAVER CREEK RESERVOIR;37.5;-106;38.5;-107.5;;;OUTCROP;;;SUBAERIAL;VOLCANIC ROCK;TRACHYDACITE;;GLASSY FIAMME;27600000;27600000;OLIGOCENE;;;;;MINERAL / COMPONENT (INCL. GROUNDMASS);BIOTITE;CRT08-7 BIO 2.3;;;PRIMARY;;;;;;;;33.83;4.25;;;13.61;;;;;;;;;;;15.59;;0.23;15.48;0.1;3.56;;;;;;6.93;EMP (EPMA);;;0.95;;;;;;;;;;4.4;0;;;;;;;;;;;;;;;;;;;;;;;;;;;;;;;;;;;;;;;;;;;;;;;;;;;;;;;;;;;;;;;;;;;;;;;;;;;;;;;;;;;;;;;;;;;;;;;;;;;;;;;;;;;;;;;;;;;;;;;;;;;;;;;;;;;;;;;;;;;;;;;;;;;;;;;;;;;;;;;;;;;;;;;;;;;;;;;;;;;;;;;;;;;;;;;;;;;;;;;;;;;;;;;;;;
2014;[18586] BACHMANN O. (2014);samp. CRT08-7;;NORTH AMERICAN CORDILLERA - CENOZOIC/QUATERNARY / CORDILLERA UNITED STATES / COLORADO / SAN JUAN VOLCANIC FIELD / CARPENTER RIDGE TUFF;BACHELOR CALDERA, NORTH OF BEAVER CREEK RESERVOIR;37.5;-106;38.5;-107.5;;;OUTCROP;;;SUBAERIAL;VOLCANIC ROCK;TRACHYDACITE;;GLASSY FIAMME;27600000;27600000;OLIGOCENE;;;;;MINERAL / COMPONENT (INCL. GROUNDMASS);AMPHIBOLE;CRT08-6 BIO 3;;;PRIMARY;;;;;;;;43.16;2.88;;;10.97;;;;;;;;;;;11.57;;11.19;14.23;0.19;;;;;;;0.99;EMP (EPMA);;;2.18;;;;;;;;;;0.12;0.04;;;;;;;;;;;;;;;;;;;;;;;;;;;;;;;;;;;;;;;;;;;;;;;;;;;;;;;;;;;;;;;;;;;;;;;;;;;;;;;;;;;;;;;;;;;;;;;;;;;;;;;;;;;;;;;;;;;;;;;;;;;;;;;;;;;;;;;;;;;;;;;;;;;;;;;;;;;;;;;;;;;;;;;;;;;;;;;;;;;;;;;;;;;;;;;;;;;;;;;;;;;;;;;;;;
2014;[18586] BACHMANN O. (2014);samp. CRT08-7;;NORTH AMERICAN CORDILLERA - CENOZOIC/QUATERNARY / CORDILLERA UNITED STATES / COLORADO / SAN JUAN VOLCANIC FIELD / CARPENTER RIDGE TUFF;BACHELOR CALDERA, NORTH OF BEAVER CREEK RESERVOIR;37.5;-106;38.5;-107.5;;;OUTCROP;;;SUBAERIAL;VOLCANIC ROCK;TRACHYDACITE;;GLASSY FIAMME;27600000;27600000;OLIGOCENE;;;;;MINERAL / COMPONENT (INCL. GROUNDMASS);AMPHIBOLE;CRT08-6 BIO 4.4;;;PRIMARY;;;;;;;;42.35;2.73;;;11;;;;;;;;;;;11.27;;10.82;13.98;0.16;;;;;;;1.45;EMP (EPMA);;;2.21;;;;;;;;;;0.2;0.32;;;;;;;;;;;;;;;;;;;;;;;;;;;;;;;;;;;;;;;;;;;;;;;;;;;;;;;;;;;;;;;;;;;;;;;;;;;;;;;;;;;;;;;;;;;;;;;;;;;;;;;;;;;;;;;;;;;;;;;;;;;;;;;;;;;;;;;;;;;;;;;;;;;;;;;;;;;;;;;;;;;;;;;;;;;;;;;;;;;;;;;;;;;;;;;;;;;;;;;;;;;;;;;;;;
2014;[18586] BACHMANN O. (2014);samp. CRT08-7;;NORTH AMERICAN CORDILLERA - CENOZOIC/QUATERNARY / CORDILLERA UNITED STATES / COLORADO / SAN JUAN VOLCANIC FIELD / CARPENTER RIDGE TUFF;BACHELOR CALDERA, NORTH OF BEAVER CREEK RESERVOIR;37.5;-106;38.5;-107.5;;;OUTCROP;;;SUBAERIAL;VOLCANIC ROCK;TRACHYDACITE;;GLASSY FIAMME;27600000;27600000;OLIGOCENE;;;;;MINERAL / COMPONENT (INCL. GROUNDMASS);AMPHIBOLE;CRT08-7 BIO 2.2;;;PRIMARY;;;;;;;;42.99;2.46;;;10.96;;;;;;;;;;;12.38;;11.37;14.01;0.33;;;;;;;1.04;EMP (EPMA);;;2.25;;;;;;;;;;0.36;0.03;;;;;;;;;;;;;;;;;;;;;;;;;;;;;;;;;;;;;;;;;;;;;;;;;;;;;;;;;;;;;;;;;;;;;;;;;;;;;;;;;;;;;;;;;;;;;;;;;;;;;;;;;;;;;;;;;;;;;;;;;;;;;;;;;;;;;;;;;;;;;;;;;;;;;;;;;;;;;;;;;;;;;;;;;;;;;;;;;;;;;;;;;;;;;;;;;;;;;;;;;;;;;;;;;;
2014;[18586] BACHMANN O. (2014);samp. CRT09-05;;NORTH AMERICAN CORDILLERA - CENOZOIC/QUATERNARY / CORDILLERA UNITED STATES / COLORADO / SAN JUAN VOLCANIC FIELD / CARPENTER RIDGE TUFF;BACHELOR CALDERA, RIBBON MESA - CATTLE MOUNTAIN ROAD;37.5;-106;38.5;-107.5;;;OUTCROP;;;SUBAERIAL;VOLCANIC ROCK;TRACHYDACITE;;FIAMME;27600000;27600000;OLIGOCENE;;;;;MINERAL / COMPONENT (INCL. GROUNDMASS);AMPHIBOLE;CRT08-9 BIO 3;;;PRIMARY;;;;;;;;42.63;2.91;;;11.34;;;;;;;;;;;11.47;;11.28;14.25;0.19;;;;;;;0.91;EMP (EPMA);;;2.24;;;;;;;;;;0.31;0.04;;;;;;;;;;;;;;;;;;;;;;;;;;;;;;;;;;;;;;;;;;;;;;;;;;;;;;;;;;;;;;;;;;;;;;;;;;;;;;;;;;;;;;;;;;;;;;;;;;;;;;;;;;;;;;;;;;;;;;;;;;;;;;;;;;;;;;;;;;;;;;;;;;;;;;;;;;;;;;;;;;;;;;;;;;;;;;;;;;;;;;;;;;;;;;;;;;;;;;;;;;;;;;;;;;
2014;[18586] BACHMANN O. (2014);samp. CRT09-05;;NORTH AMERICAN CORDILLERA - CENOZOIC/QUATERNARY / CORDILLERA UNITED STATES / COLORADO / SAN JUAN VOLCANIC FIELD / CARPENTER RIDGE TUFF;BACHELOR CALDERA, RIBBON MESA - CATTLE MOUNTAIN ROAD;37.5;-106;38.5;-107.5;;;OUTCROP;;;SUBAERIAL;VOLCANIC ROCK;TRACHYDACITE;;FIAMME;27600000;27600000;OLIGOCENE;;;;;MINERAL / COMPONENT (INCL. GROUNDMASS);AMPHIBOLE;CRT09-7 BIO 1.1;;;PRIMARY;;;;;;;;43.08;2.23;;;10.97;;;;;;;;;;;12;;11.3;13.99;0.36;;;;;;;0.98;EMP (EPMA);;;2.23;;;;;;;;;;0.32;0.04;;;;;;;;;;;;;;;;;;;;;;;;;;;;;;;;;;;;;;;;;;;;;;;;;;;;;;;;;;;;;;;;;;;;;;;;;;;;;;;;;;;;;;;;;;;;;;;;;;;;;;;;;;;;;;;;;;;;;;;;;;;;;;;;;;;;;;;;;;;;;;;;;;;;;;;;;;;;;;;;;;;;;;;;;;;;;;;;;;;;;;;;;;;;;;;;;;;;;;;;;;;;;;;;;;
2011;[18619] LIU DONG (2011);samp. 10XB05;;CENTRAL ASIAN FOLDBELT - CENOZOIC/QUATERNARY / CHINA - CENOZOIC/QUATERNARY / TIBET;XUNGBA BASIN;32;82;32;82;;;OUTCROP;;;SUBAERIAL;VOLCANIC ROCK;TRACHYDACITE;;;;;CENOZOIC;;;;;WHOLE ROCK;;;;;;;;;;;;;66.8;0.62;;;15.25;;;;;;;;;3.26;1.61;;1.48;2.5;1.51;0.05;;;;;;;5.22;ICPAES;;;2.54;0.18;;;;;;;;;;;;;;2.11;;;;;;;;;7.34;;;;;;;;;;;;;;;;7.08;ICPMS;;;;;;;56.46;38.53;;;5.78;9.32;9.93;81.68;30.52;;;;;352;ICPMS;;;191;ICPMS;;;15.18;ICPMS;;;280;ICPMS;;;9.73;ICPMS;;;;;;;;;;;;;20.9;567;ICPMS;;;79.35;ICPMS;;;167.7;ICPMS;;;21.62;73.78;ICPMS;;;12.14;ICPMS;;;1.16;7.58;0.83;3.31;0.51;1.52;0.18;1.16;0.18;7.75;0.68;;;;;;;;39.04;ICPMS;;;;;42.27;ICPMS;;;8.64;;;;;;;;;;;;;;;;;;;;;;;;;;;;;;;;;;;;;;;;;;;;;;;;;;;;;;;;;;;;;;;;;;;;;;;;;;;;;;;;
2014;[18755] DONG YU (2014);samp. D2243-1-1;;CENTRAL ASIAN FOLDBELT - MESOZOIC / CHINA - MESOZOIC / INNER MONGOLIA / BAIYINGAOLAO FORMATION;WUCHAGOU AREA OF THZE HORQIN RIGHT FRONT BANNER, GREAT XING^AN RANGE;46.8;120.33;46.8;120.33;;;OUTCROP;;;SUBAERIAL;VOLCANIC ROCK;TRACHYDACITE;;;;;CRETACEOUS;;;;;WHOLE ROCK;;;;;;;;;;;;;65.97;0.62;;;16.3;;;;;;;;;3.51;;;1.5;1.44;1.07;0.1;;;;;;;3.59;XRF;;;4.94;0.19;;;;;;;;;;;;;;1.81;;;;;;;;29.8;2.01;;;;;;;;;;;;;;;;5.5;ICPMS;;;;;;;52;6.9;;;7.1;4.5;5;97.9;21.1;;;;;125;ICPMS;;;441;ICPMS;;;21.6;ICPMS;;;156;ICPMS;;;11.9;ICPMS;;;0.31;ICPMS;;;;0.17;0.05;;1.7;;4.77;890;ICPMS;;;37.2;ICPMS;;;73;ICPMS;;;8.61;33.6;ICPMS;;;5.89;ICPMS;;;1.44;5.05;0.76;4.38;0.78;2.2;0.37;2.19;0.37;5.58;1.14;2.34;0.002;;;;;1.14;22.2;ICPMS;;;;0.32;16;ICPMS;;;5.11;;;;;;;;;;;;;;;;;;;;;;;;;;;;;;;;;;;;;;;;;;;;;;;;;;;;;;;;;;;;;;;;;;;;;;;;;;;;;;;;
2014;[18755] DONG YU (2014);samp. PM012-2-1;;CENTRAL ASIAN FOLDBELT - MESOZOIC / CHINA - MESOZOIC / INNER MONGOLIA / BAIYINGAOLAO FORMATION;WUCHAGOU AREA OF THZE HORQIN RIGHT FRONT BANNER, GREAT XING^AN RANGE;46.8;120.33;46.8;120.33;;;OUTCROP;;;SUBAERIAL;VOLCANIC ROCK;TRACHYDACITE;;;;;CRETACEOUS;;;;;WHOLE ROCK;;;;;;;;;;;;;67.02;0.6;;;15.66;;;;;;;;;3.2;;;0.75;2.59;1.11;0.08;;;;;;;3.57;XRF;;;4.4;0.21;;;;;;;;;;;;;;1.14;;;;;;;;22.5;2.58;;;;;;;;;;;;;;;;5.5;ICPMS;;;;;;;80;7.6;;;7.5;3.2;6.9;71.3;21.3;;;;;116;ICPMS;;;466;ICPMS;;;20.6;ICPMS;;;131;ICPMS;;;11.4;ICPMS;;;0.98;ICPMS;;;;0.14;0.04;;0.79;;3.79;841;ICPMS;;;35.2;ICPMS;;;65.7;ICPMS;;;7.68;29.2;ICPMS;;;5.56;ICPMS;;;1.31;3.91;0.71;3.57;0.7;2.2;0.32;2.13;0.34;4.59;1.11;1.26;0.001;;;;;0.59;22.2;ICPMS;;;;0.36;16.2;ICPMS;;;5.93;;;;;;;;;;;;;;;;;;;;;;;;;;;;;;;;;;;;;;;;;;;;;;;;;;;;;;;;;;;;;;;;;;;;;;;;;;;;;;;;
2014;[18755] DONG YU (2014);samp. D2282-2-1;;CENTRAL ASIAN FOLDBELT - MESOZOIC / CHINA - MESOZOIC / INNER MONGOLIA / BAIYINGAOLAO FORMATION;WUCHAGOU AREA OF THZE HORQIN RIGHT FRONT BANNER, GREAT XING^AN RANGE;46.8;120.33;46.8;120.33;;;OUTCROP;;;SUBAERIAL;VOLCANIC ROCK;TRACHYDACITE;;;;;CRETACEOUS;;;;;WHOLE ROCK;;;;;;;;;;;;;67.67;0.63;;;15.33;;;;;;;;;3.46;;;1.65;2.56;1.24;0.08;;;;;;;3.87;XRF;;;4.21;0.18;;;;;;;;;;;;;;0.36;;;;;;;;32;2.6;;;;;;;;;;;;;;;;6.6;ICPMS;;;;;;;69;9.4;;;8.3;4.8;7.2;78.5;19.6;;;;;125;ICPMS;;;443;ICPMS;;;19.6;ICPMS;;;154;ICPMS;;;11.9;ICPMS;;;0.51;ICPMS;;;;0.05;0.06;;0.98;;4.83;791;ICPMS;;;35.7;ICPMS;;;70.6;ICPMS;;;7.7;29.9;ICPMS;;;5.31;ICPMS;;;1.3;4;0.68;4.06;0.82;2.18;0.32;2.12;0.34;5.2;1.17;1.88;0;;;;;0.67;21.3;ICPMS;;;;0.46;16.5;ICPMS;;;3.33;;;;;;;;;;;;;;;;;;;;;;;;;;;;;;;;;;;;;;;;;;;;;;;;;;;;;;;;;;;;;;;;;;;;;;;;;;;;;;;;