Year;CITATION;SAMPLE NAME;UNIQUE_ID;LOCATION;LOCATION COMMENT;LATITUDE (MIN.);LONGITUDE (MIN.);LATITUDE (MAX.);LONGITUDE (MAX.);ELEVATION (MIN.);ELEVATION (MAX.);SAMPLING TECHNIQUE;DRILLING DEPTH (MIN.);DRILLING DEPTH (MAX.);LAND/SEA (SAMPLING);ROCK TYPE;ROCK NAME;ROCK TEXTURE;SAMPLE COMMENT;AGE (MIN.);AGE (MAX.);GEOLOGICAL AGE;GEOLOGICAL AGE PREFIX;ERUPTION YEAR;ALTERATION;ALTERATION TYPE;TYPE OF MATERIAL;MINERAL / COMPONENT;SPOT (MINERAL);CRYSTAL;RIM / CORE (MINERAL GRAINS);PRIMARY/SECONDARY;INCLUSION TYPE;SPOT (INCLUSION);MINERAL (INCLUSION);RIM / CORE (INCLUSION);HOSTMINERAL (INCLUSION);HEATING;HEATING TEMPERATURE (?C);SIO2(WT%);TIO2(WT%);ZRO2(WT%);B2O3(WT%);AL2O3(WT%);CR2O3(WT%);LA2O3(WT%);CE2O3(WT%);Y2O3(WT%);V2O3(WT%);NB2O3(WT%);TA2O5(WT%);WO3(WT%);FE2O3T(WT%);FE2O3(WT%);FEOT(WT%);FEO(WT%);CAO(WT%);MGO(WT%);MNO(WT%);BAO(WT%);SRO(WT%);NIO(WT%);ZNO(WT%);CS2O(WT%);RB2O(WT%);K2O(WT%);;;;NA2O(WT%);P2O5(WT%);H2O(WT%);;;;H2OP(WT%);H2OM(WT%);CO2(WT%);C(WT%);F(WT%);CL(WT%);SO2(WT%);SO3(WT%);S(WT%);LOI(WT%);AL(WT%);TI(WT%);FE(WT%);MG(WT%);CA(WT%);K(WT%);NA(WT%);LI(PPM);BE(PPM);B(PPM);C(PPM);F(PPM);NA(PPM);MG(PPM);AL(PPM);P(PPM);S(PPM);CL(PPM);AR40(AT/G);AR40(CCMSTP/G);AR40(MOL/G);AR40(PPB);K(PPM);CA(PPM);SC(PPM);;;;TI(PPM);;;;V(PPM);CR(PPM);MN(PPM);FE(PPM);CO(PPM);NI(PPM);CU(PPM);ZN(PPM);GA(PPM);GE(PPM);AS(PPM);SE(PPM);BR(PPM);RB(PPM): altern. values or methods;;;;SR(PPM): altern. values or methods;;;;Y(PPM): altern. values or methods;;;;ZR(PPM): altern. values or methods;;;;NB(PPM): altern. values or methods;;;;MO(PPM): altern. values or methods;;;;AG(PPM);CD(PPM);IN(PPM);SN(PPM);SB(PPM);TE(PPM);CS(PPM);BA(PPM): altern. values or methods;;;;LA(PPM): altern. values or methods;;;;CE(PPM): altern. values or methods;;;;PR(PPM);ND(PPM): altern. values or methods;;;;SM(PPM): altern. values or methods;;;;EU(PPM);GD(PPM);TB(PPM);DY(PPM);HO(PPM);ER(PPM);TM(PPM);YB(PPM);LU(PPM);HF(PPM);TA(PPM);W(PPM);RE(PPM);AU(PPM);AU(PPB);HG(PPM);HG(PPB);TL(PPM);PB(PPM): altern. values or methods;;;;PB206(PPM);BI(PPM);TH(PPM): altern. values or methods;;;;U(PPM);ND143_ND144;ND143_ND144_INI;EPSILON_ND;EPSILON_ND_INI;SM147_ND144;SR87_SR86;SR87_SR86_INI;EPSILON_SR;EPSILON_SR_INI;RB87_SR86;PB206_PB204;PB206_PB204_INI;PB206_PB207;PB206_PB208;PB207_PB204;PB207_PB204_INI;PB207_PB206;PB208_PB204;PB208_PB204_INI;PB208_PB206;HF176_HF177;HF176_HF177_INI;EPSILON_HF_INI;LU176_HF177;YB176_HF177;AR36_AR39;AR36_AR40;AR37_AR39;AR38_AR39;AR39_AR40;AR40_AR36;AR40_AR39;PB206_U238;PB207_U235;PB208_TH232;TH232_PB204;TH232_U238;U235_PB204;U238_PB204;U238_PB206;D7LI(VS LSVEC);D18O(PER MIL);D18O(VS SMOW);D18O(VS VSMOW);D56FE(VS IRMM-014);D57FE(VS IRMM-014);DD(VS SMOW);ALBITE(MOL%);ANORTHITE(MOL%);CA OLIVINE(MOL%);ENSTATITE(MOL%);FAYALITE(MOL%);FORSTERITE(MOL%);FERROSILITE(MOL%);ORTHOCLASE(MOL%);TEPHROITE(MOL%);ULVOSPINEL(MOL%);WOLLASTONITE(MOL%);AGE(KA): altern. values or methods;;;;AGE(MA): altern. values or methods;;;;;;;;AGE_PB207_PB206(MA);AGE_PB207_U235(MA);AGE_PB206_U238(MA): altern. values or methods;;;;;;AGE_PB208_TH232(MA);
2015;[19878] WANG RUI (2015);samp. WR-13-83;;CENTRAL ASIAN FOLDBELT - CENOZOIC/QUATERNARY / CHINA - CENOZOIC/QUATERNARY / TIBET;JIADACUO, GANGDESE BELT;29.8361;85.7667;29.8361;85.7667;5180;5180;OUTCROP;;;SUBAERIAL;VOLCANIC ROCK;TRACHYDACITE;;;;;MIOCENE;;;;;MINERAL / COMPONENT (INCL. GROUNDMASS);ZIRCON;;;;PRIMARY;;;;;;;;;;;;;;;;;;;;;;;;;;;;;;;;;;;;;;;;;;;;;;;;;;;;;;;;;;;;;;;;;;;;;;;;;;;;;;;;;;;;;;;;;;;;;;;;;;;;;;;;;;;;;;;;;;;;;;;;;;;;;;;;;;;;;;;;;;;;;;;;;;;;;;;;;;;;;;;;;;;;;;;;;;;;;;;;;;;;;;;;;;;;;;;;;;;;;;;;0.282790662908681;;;0.000918593487232036;0.0191141317831875;;;;;;;;;;;;;;;;;;;;;;;;;;;;;;;;;;;;;;;;;;;;;;;;;;;;;;;
2015;[19878] WANG RUI (2015);samp. WR-13-83;;CENTRAL ASIAN FOLDBELT - CENOZOIC/QUATERNARY / CHINA - CENOZOIC/QUATERNARY / TIBET;JIADACUO, GANGDESE BELT;29.8361;85.7667;29.8361;85.7667;5180;5180;OUTCROP;;;SUBAERIAL;VOLCANIC ROCK;TRACHYDACITE;;;;;MIOCENE;;;;;MINERAL / COMPONENT (INCL. GROUNDMASS);ZIRCON;;;;PRIMARY;;;;;;;;;;;;;;;;;;;;;;;;;;;;;;;;;;;;;;;;;;;;;;;;;;;;;;;;;;;;;;;;;;;;;;;;;;;;;;;;;;;;;;;;;;;;;;;;;;;;;;;;;;;;;;;;;;;;;;;;;;;;;;;;;;;;;;;;;;;;;;;;;;;;;;;;;;;;;;;;;;;;;;;;;;;;;;;;;;;;;;;;;;;;;;;;;;;;;;;;0.282710320694861;;;0.00046861151256146;0.00943404742292614;;;;;;;;;;;;;;;;;;;;;;;;;;;;;;;;;;;;;;;;;;;;;;;;;;;;;;;
2015;[19878] WANG RUI (2015);samp. WR-13-83;;CENTRAL ASIAN FOLDBELT - CENOZOIC/QUATERNARY / CHINA - CENOZOIC/QUATERNARY / TIBET;JIADACUO, GANGDESE BELT;29.8361;85.7667;29.8361;85.7667;5180;5180;OUTCROP;;;SUBAERIAL;VOLCANIC ROCK;TRACHYDACITE;;;;;MIOCENE;;;;;MINERAL / COMPONENT (INCL. GROUNDMASS);ZIRCON;;;;PRIMARY;;;;;;;;;;;;;;;;;;;;;;;;;;;;;;;;;;;;;;;;;;;;;;;;;;;;;;;;;;;;;;;;;;;;;;;;;;;;;;;;;;;;;;;;;;;;;;;;;;;;;;;;;;;;;;;;;;;;;;;;;;;;;;;;;;;;;;;;;;;;;;;;;;;;;;;;;;;;;;;;;;;;;;;;;;;;;;;;;;;;;;;;;;;;;;;;;;;;;;;;0.282626218276471;;;0.000655697835047755;0.0133769287064993;;;;;;;;;;;;;;;;;;;;;;;;;;;;;;;;;;;;;;;;;;;;;;;;;;;;;;;
2015;[19878] WANG RUI (2015);samp. WR-13-83;;CENTRAL ASIAN FOLDBELT - CENOZOIC/QUATERNARY / CHINA - CENOZOIC/QUATERNARY / TIBET;JIADACUO, GANGDESE BELT;29.8361;85.7667;29.8361;85.7667;5180;5180;OUTCROP;;;SUBAERIAL;VOLCANIC ROCK;TRACHYDACITE;;;;;MIOCENE;;;;;MINERAL / COMPONENT (INCL. GROUNDMASS);ZIRCON;;;;PRIMARY;;;;;;;;;;;;;;;;;;;;;;;;;;;;;;;;;;;;;;;;;;;;;;;;;;;;;;;;;;;;;;;;;;;;;;;;;;;;;;;;;;;;;;;;;;;;;;;;;;;;;;;;;;;;;;;;;;;;;;;;;;;;;;;;;;;;;;;;;;;;;;;;;;;;;;;;;;;;;;;;;;;;;;;;;;;;;;;;;;;;;;;;;;;;;;;;;;;;;;;;0.28272432001356;;;0.00182134084683533;0.0447285955941538;;;;;;;;;;;;;;;;;;;;;;;;;;;;;;;;;;;;;;;;;;;;;;;;;;;;;;;
2015;[19878] WANG RUI (2015);samp. WR-13-83;;CENTRAL ASIAN FOLDBELT - CENOZOIC/QUATERNARY / CHINA - CENOZOIC/QUATERNARY / TIBET;JIADACUO, GANGDESE BELT;29.8361;85.7667;29.8361;85.7667;5180;5180;OUTCROP;;;SUBAERIAL;VOLCANIC ROCK;TRACHYDACITE;;;;;MIOCENE;;;;;MINERAL / COMPONENT (INCL. GROUNDMASS);ZIRCON;;;;PRIMARY;;;;;;;;;;;;;;;;;;;;;;;;;;;;;;;;;;;;;;;;;;;;;;;;;;;;;;;;;;;;;;;;;;;;;;;;;;;;;;;;;;;;;;;;;;;;;;;;;;;;;;;;;;;;;;;;;;;;;;;;;;;;;;;;;;;;;;;;;;;;;;;;;;;;;;;;;;;;;;;;;;;;;;;;;;;;;;;;;;;;;;;;;;;;;;;;;;;;;;;;0.28265013478887;;;0.000422825921921831;0.00890061916110692;;;;;;;;;;;;;;;;;;;;;;;;;;;;;;;;;;;;;;;;;;;;;;;;;;;;;;;
2015;[19878] WANG RUI (2015);samp. WR-13-83;;CENTRAL ASIAN FOLDBELT - CENOZOIC/QUATERNARY / CHINA - CENOZOIC/QUATERNARY / TIBET;JIADACUO, GANGDESE BELT;29.8361;85.7667;29.8361;85.7667;5180;5180;OUTCROP;;;SUBAERIAL;VOLCANIC ROCK;TRACHYDACITE;;;;;MIOCENE;;;;;MINERAL / COMPONENT (INCL. GROUNDMASS);ZIRCON;;;;PRIMARY;;;;;;;;;;;;;;;;;;;;;;;;;;;;;;;;;;;;;;;;;;;;;;;;;;;;;;;;;;;;;;;;;;;;;;;;;;;;;;;;;;;;;;;;;;;;;;;;;;;;;;;;;;;;;;;;;;;;;;;;;;;;;;;;;;;;;;;;;;;;;;;;;;;;;;;;;;;;;;;;;;;;;;;;;;;;;;;;;;;;;;;;;;;;;;;;;;;;;;;;0.282683847379974;;;0.000674716235402123;0.014304523668959;;;;;;;;;;;;;;;;;;;;;;;;;;;;;;;;;;;;;;;;;;;;;;;;;;;;;;;
2015;[19878] WANG RUI (2015);samp. WR-13-83;;CENTRAL ASIAN FOLDBELT - CENOZOIC/QUATERNARY / CHINA - CENOZOIC/QUATERNARY / TIBET;JIADACUO, GANGDESE BELT;29.8361;85.7667;29.8361;85.7667;5180;5180;OUTCROP;;;SUBAERIAL;VOLCANIC ROCK;TRACHYDACITE;;;;;MIOCENE;;;;;MINERAL / COMPONENT (INCL. GROUNDMASS);ZIRCON;;;;PRIMARY;;;;;;;;;;;;;;;;;;;;;;;;;;;;;;;;;;;;;;;;;;;;;;;;;;;;;;;;;;;;;;;;;;;;;;;;;;;;;;;;;;;;;;;;;;;;;;;;;;;;;;;;;;;;;;;;;;;;;;;;;;;;;;;;;;;;;;;;;;;;;;;;;;;;;;;;;;;;;;;;;;;;;;;;;;;;;;;;;;;;;;;;;;;;;;;;;;;;;;;;0.282595546417313;;;0.000784140051665575;0.0166616120581034;;;;;;;;;;;;;;;;;;;;;;;;;;;;;;;;;;;;;;;;;;;;;;;;;;;;;;;
2015;[19878] WANG RUI (2015);samp. WR-13-83;;CENTRAL ASIAN FOLDBELT - CENOZOIC/QUATERNARY / CHINA - CENOZOIC/QUATERNARY / TIBET;JIADACUO, GANGDESE BELT;29.8361;85.7667;29.8361;85.7667;5180;5180;OUTCROP;;;SUBAERIAL;VOLCANIC ROCK;TRACHYDACITE;;;;;MIOCENE;;;;;MINERAL / COMPONENT (INCL. GROUNDMASS);ZIRCON;;;;PRIMARY;;;;;;;;;;;;;;;;;;;;;;;;;;;;;;;;;;;;;;;;;;;;;;;;;;;;;;;;;;;;;;;;;;;;;;;;;;;;;;;;;;;;;;;;;;;;;;;;;;;;;;;;;;;;;;;;;;;;;;;;;;;;;;;;;;;;;;;;;;;;;;;;;;;;;;;;;;;;;;;;;;;;;;;;;;;;;;;;;;;;;;;;;;;;;;;;;;;;;;;;0.282738488302153;;;0.00128550542529491;0.0321599025687082;;;;;;;;;;;;;;;;;;;;;;;;;;;;;;;;;;;;;;;;;;;;;;;;;;;;;;;
2015;[19878] WANG RUI (2015);samp. WR-13-14;;CENTRAL ASIAN FOLDBELT - CENOZOIC/QUATERNARY / CHINA - CENOZOIC/QUATERNARY / TIBET;SUOJIN, GANGDESE BELT;29.6822;89.5844;29.6822;89.5844;4336;4336;OUTCROP;;;SUBAERIAL;VOLCANIC ROCK;TRACHYDACITE;;;;;MIOCENE;;;;;MINERAL / COMPONENT (INCL. GROUNDMASS);ZIRCON;;;;PRIMARY;;;;;;;;;;;;;;;;;;;;;;;;;;;;;;;;;;;;;;;;;;;;;;;;;;;;;;;;;;;;;;;;;;;;;;;;;;;;;;;;;;;;;;;;;;;;;;;;;;;;;;;;;;;;;;;;;;;;;;;;;;;;;;;;;;;;;;;;;;;;;;;;;;;;;;;;;;;;;;;;;;;;;;;;;;;;;;;;;;;;;;;;;;;;;;;;;;;;;;;;0.283041430432716;;;0.00157934729272026;0.0313302413826248;;;;;;;;;;;;;;;;;;;;;;;;;;;;;;;;;;;;;;;;;;;;;;;;;;;;;;;
2015;[19878] WANG RUI (2015);samp. WR-13-14;;CENTRAL ASIAN FOLDBELT - CENOZOIC/QUATERNARY / CHINA - CENOZOIC/QUATERNARY / TIBET;SUOJIN, GANGDESE BELT;29.6822;89.5844;29.6822;89.5844;4336;4336;OUTCROP;;;SUBAERIAL;VOLCANIC ROCK;TRACHYDACITE;;;;;MIOCENE;;;;;MINERAL / COMPONENT (INCL. GROUNDMASS);ZIRCON;;;;PRIMARY;;;;;;;;;;;;;;;;;;;;;;;;;;;;;;;;;;;;;;;;;;;;;;;;;;;;;;;;;;;;;;;;;;;;;;;;;;;;;;;;;;;;;;;;;;;;;;;;;;;;;;;;;;;;;;;;;;;;;;;;;;;;;;;;;;;;;;;;;;;;;;;;;;;;;;;;;;;;;;;;;;;;;;;;;;;;;;;;;;;;;;;;;;;;;;;;;;;;;;;;0.282875086128259;;;0.000415584271639546;0.00892385347709785;;;;;;;;;;;;;;;;;;;;;;;;;;;;;;;;;;;;;;;;;;;;;;;;;;;;;;;
2015;[19878] WANG RUI (2015);samp. WR-13-14;;CENTRAL ASIAN FOLDBELT - CENOZOIC/QUATERNARY / CHINA - CENOZOIC/QUATERNARY / TIBET;SUOJIN, GANGDESE BELT;29.6822;89.5844;29.6822;89.5844;4336;4336;OUTCROP;;;SUBAERIAL;VOLCANIC ROCK;TRACHYDACITE;;;;;MIOCENE;;;;;MINERAL / COMPONENT (INCL. GROUNDMASS);ZIRCON;;;;PRIMARY;;;;;;;;;;;;;;;;;;;;;;;;;;;;;;;;;;;;;;;;;;;;;;;;;;;;;;;;;;;;;;;;;;;;;;;;;;;;;;;;;;;;;;;;;;;;;;;;;;;;;;;;;;;;;;;;;;;;;;;;;;;;;;;;;;;;;;;;;;;;;;;;;;;;;;;;;;;;;;;;;;;;;;;;;;;;;;;;;;;;;;;;;;;;;;;;;;;;;;;;0.282791508786846;;;0.000603271571600703;0.0142398527185197;;;;;;;;;;;;;;;;;;;;;;;;;;;;;;;;;;;;;;;;;;;;;;;;;;;;;;;
2015;[19878] WANG RUI (2015);samp. WR-13-14;;CENTRAL ASIAN FOLDBELT - CENOZOIC/QUATERNARY / CHINA - CENOZOIC/QUATERNARY / TIBET;SUOJIN, GANGDESE BELT;29.6822;89.5844;29.6822;89.5844;4336;4336;OUTCROP;;;SUBAERIAL;VOLCANIC ROCK;TRACHYDACITE;;;;;MIOCENE;;;;;MINERAL / COMPONENT (INCL. GROUNDMASS);ZIRCON;;;;PRIMARY;;;;;;;;;;;;;;;;;;;;;;;;;;;;;;;;;;;;;;;;;;;;;;;;;;;;;;;;;;;;;;;;;;;;;;;;;;;;;;;;;;;;;;;;;;;;;;;;;;;;;;;;;;;;;;;;;;;;;;;;;;;;;;;;;;;;;;;;;;;;;;;;;;;;;;;;;;;;;;;;;;;;;;;;;;;;;;;;;;;;;;;;;;;;;;;;;;;;;;;;0.282827919235991;;;0.000276723574149686;0.00585385109573645;;;;;;;;;;;;;;;;;;;;;;;;;;;;;;;;;;;;;;;;;;;;;;;;;;;;;;;
2015;[19878] WANG RUI (2015);samp. WR-13-14;;CENTRAL ASIAN FOLDBELT - CENOZOIC/QUATERNARY / CHINA - CENOZOIC/QUATERNARY / TIBET;SUOJIN, GANGDESE BELT;29.6822;89.5844;29.6822;89.5844;4336;4336;OUTCROP;;;SUBAERIAL;VOLCANIC ROCK;TRACHYDACITE;;;;;MIOCENE;;;;;MINERAL / COMPONENT (INCL. GROUNDMASS);ZIRCON;;;;PRIMARY;;;;;;;;;;;;;;;;;;;;;;;;;;;;;;;;;;;;;;;;;;;;;;;;;;;;;;;;;;;;;;;;;;;;;;;;;;;;;;;;;;;;;;;;;;;;;;;;;;;;;;;;;;;;;;;;;;;;;;;;;;;;;;;;;;;;;;;;;;;;;;;;;;;;;;;;;;;;;;;;;;;;;;;;;;;;;;;;;;;;;;;;;;;;;;;;;;;;;;;;0.282844544127802;;;0.000539150702156232;0.0123475310604595;;;;;;;;;;;;;;;;;;;;;;;;;;;;;;;;;;;;;;;;;;;;;;;;;;;;;;;
2015;[19878] WANG RUI (2015);samp. WR-13-14;;CENTRAL ASIAN FOLDBELT - CENOZOIC/QUATERNARY / CHINA - CENOZOIC/QUATERNARY / TIBET;SUOJIN, GANGDESE BELT;29.6822;89.5844;29.6822;89.5844;4336;4336;OUTCROP;;;SUBAERIAL;VOLCANIC ROCK;TRACHYDACITE;;;;;MIOCENE;;;;;MINERAL / COMPONENT (INCL. GROUNDMASS);ZIRCON;;;;PRIMARY;;;;;;;;;;;;;;;;;;;;;;;;;;;;;;;;;;;;;;;;;;;;;;;;;;;;;;;;;;;;;;;;;;;;;;;;;;;;;;;;;;;;;;;;;;;;;;;;;;;;;;;;;;;;;;;;;;;;;;;;;;;;;;;;;;;;;;;;;;;;;;;;;;;;;;;;;;;;;;;;;;;;;;;;;;;;;;;;;;;;;;;;;;;;;;;;;;;;;;;;0.282830138532571;;;0.000668670684186446;0.0151460634258132;;;;;;;;;;;;;;;;;;;;;;;;;;;;;;;;;;;;;;;;;;;;;;;;;;;;;;;
2015;[19878] WANG RUI (2015);samp. WR-13-14;;CENTRAL ASIAN FOLDBELT - CENOZOIC/QUATERNARY / CHINA - CENOZOIC/QUATERNARY / TIBET;SUOJIN, GANGDESE BELT;29.6822;89.5844;29.6822;89.5844;4336;4336;OUTCROP;;;SUBAERIAL;VOLCANIC ROCK;TRACHYDACITE;;;;;MIOCENE;;;;;MINERAL / COMPONENT (INCL. GROUNDMASS);ZIRCON;;;;PRIMARY;;;;;;;;;;;;;;;;;;;;;;;;;;;;;;;;;;;;;;;;;;;;;;;;;;;;;;;;;;;;;;;;;;;;;;;;;;;;;;;;;;;;;;;;;;;;;;;;;;;;;;;;;;;;;;;;;;;;;;;;;;;;;;;;;;;;;;;;;;;;;;;;;;;;;;;;;;;;;;;;;;;;;;;;;;;;;;;;;;;;;;;;;;;;;;;;;;;;;;;;0.283057745744599;;;0.000671406362437198;0.0144307360288084;;;;;;;;;;;;;;;;;;;;;;;;;;;;;;;;;;;;;;;;;;;;;;;;;;;;;;;
2015;[19878] WANG RUI (2015);samp. WR-13-14;;CENTRAL ASIAN FOLDBELT - CENOZOIC/QUATERNARY / CHINA - CENOZOIC/QUATERNARY / TIBET;SUOJIN, GANGDESE BELT;29.6822;89.5844;29.6822;89.5844;4336;4336;OUTCROP;;;SUBAERIAL;VOLCANIC ROCK;TRACHYDACITE;;;;;MIOCENE;;;;;MINERAL / COMPONENT (INCL. GROUNDMASS);ZIRCON;;;;PRIMARY;;;;;;;;;;;;;;;;;;;;;;;;;;;;;;;;;;;;;;;;;;;;;;;;;;;;;;;;;;;;;;;;;;;;;;;;;;;;;;;;;;;;;;;;;;;;;;;;;;;;;;;;;;;;;;;;;;;;;;;;;;;;;;;;;;;;;;;;;;;;;;;;;;;;;;;;;;;;;;;;;;;;;;;;;;;;;;;;;;;;;;;;;;;;;;;;;;;;;;;;0.282825323677442;;;0.000440462988421798;0.0106675043118377;;;;;;;;;;;;;;;;;;;;;;;;;;;;;;;;;;;;;;;;;;;;;;;;;;;;;;;
2015;[19878] WANG RUI (2015);samp. WR-13-14;;CENTRAL ASIAN FOLDBELT - CENOZOIC/QUATERNARY / CHINA - CENOZOIC/QUATERNARY / TIBET;SUOJIN, GANGDESE BELT;29.6822;89.5844;29.6822;89.5844;4336;4336;OUTCROP;;;SUBAERIAL;VOLCANIC ROCK;TRACHYDACITE;;;;;MIOCENE;;;;;MINERAL / COMPONENT (INCL. GROUNDMASS);ZIRCON;;;;PRIMARY;;;;;;;;;;;;;;;;;;;;;;;;;;;;;;;;;;;;;;;;;;;;;;;;;;;;;;;;;;;;;;;;;;;;;;;;;;;;;;;;;;;;;;;;;;;;;;;;;;;;;;;;;;;;;;;;;;;;;;;;;;;;;;;;;;;;;;;;;;;;;;;;;;;;;;;;;;;;;;;;;;;;;;;;;;;;;;;;;;;;;;;;;;;;;;;;;;;;;;;;0.28284840757457;;;0.00037399519294289;0.00845502502912617;;;;;;;;;;;;;;;;;;;;;;;;;;;;;;;;;;;;;;;;;;;;;;;;;;;;;;;
2015;[19878] WANG RUI (2015);samp. WR-13-14;;CENTRAL ASIAN FOLDBELT - CENOZOIC/QUATERNARY / CHINA - CENOZOIC/QUATERNARY / TIBET;SUOJIN, GANGDESE BELT;29.6822;89.5844;29.6822;89.5844;4336;4336;OUTCROP;;;SUBAERIAL;VOLCANIC ROCK;TRACHYDACITE;;;;;MIOCENE;;;;;MINERAL / COMPONENT (INCL. GROUNDMASS);ZIRCON;;;;PRIMARY;;;;;;;;;;;;;;;;;;;;;;;;;;;;;;;;;;;;;;;;;;;;;;;;;;;;;;;;;;;;;;;;;;;;;;;;;;;;;;;;;;;;;;;;;;;;;;;;;;;;;;;;;;;;;;;;;;;;;;;;;;;;;;;;;;;;;;;;;;;;;;;;;;;;;;;;;;;;;;;;;;;;;;;;;;;;;;;;;;;;;;;;;;;;;;;;;;;;;;;;0.282849368600912;;;0.000560267601586749;0.0115256706822292;;;;;;;;;;;;;;;;;;;;;;;;;;;;;;;;;;;;;;;;;;;;;;;;;;;;;;;
2015;[19893] GALLHOFER D. (2015);samp. DG114;;CARPATHIAN BELT AND PANNONIAN BASIN / SOUTHERN PANNONIAN-EASTERN CARPATHIAN (TISZA-DACIA / APUSENI MOUNTAINS;;46.3418;23.0062;46.3418;23.0062;;;OUTCROP;;;SUBAERIAL;VOLCANIC ROCK;TRACHYDACITE;;;;;CRETACEOUS;UPPER;;;;WHOLE ROCK;;;;;;;;;;;;;68.82;0.25;;;17.09;;;;;;;;;2.57;;;;0.28;0.66;0.08;;;;;;;0.64;XRF;;;8.3;0.11;;;;;;;;;;;;;;1.33;;;;;;;;;;;;;;;;;;;;;;;;;4.06;ICPMS_LA;;;;;;;22.28;;;;4.38;;;;12.5;;;;;25.82;ICPMS_LA;;;357.21;ICPMS_LA;;;9.53;ICPMS_LA;;;112.47;ICPMS_LA;;;5.08;ICPMS_LA;;;;;;;;;;;;;0.89;125.1;ICPMS_LA;;;10.9;ICPMS_LA;;;23.48;ICPMS_LA;;;2.06;8.22;ICPMS_LA;;;1.55;ICPMS_LA;;;0.57;1.89;0.21;1.57;0.23;1.26;;0.81;0.28;3.24;0.23;;;;;;;;15.32;ICPMS_LA;;;;;5.64;ICPMS_LA;;;2.15;;;;;;;;;;;;;;;;;;;;;;;;;;;;;;;;;;;;;;;;;;;;;;;;;;;;;;;;;;;;;;;;;;;;;;;;;;;;;;;;
2015;[19926] YANG WU-BIN (2015);samp. TW4-1;;CENTRAL ASIAN FOLDBELT - MESOZOIC / CHINA - MESOZOIC / HEILONGJIANG PROVINCE / MANITU FORMATION;TUQUAN;45.5386;121.1825;45.5386;121.1825;;;OUTCROP;;;SUBAERIAL;VOLCANIC ROCK;TRACHYDACITE;;;;;CRETACEOUS;LOWER;;;;WHOLE ROCK;;;;;;;;;;;;;64.39;0.61;;;16.19;;;;;;;;;4.87;;;;3.79;1.71;0.08;;;;;;;3.27;XRF;;;4.22;0.19;;;;;;;;;;;;;;0.68;;;;;;;;;;;;;;;;;;;;;;;;;10.05;ICPMS;;;3678;ICPMS;;;81.74;31.74;612;;10.05;3.48;7.26;68.91;20.13;1.99;;;;110.9;ICPMS;;;483;ICPMS;;;16.04;ICPMS;;;198;ICPMS;;;6.18;ICPMS;;;;;;;;;;;;;5.68;547;ICPMS;;;27.88;ICPMS;;;55.69;ICPMS;;;6.66;24.5;ICPMS;;;4.52;ICPMS;;;1.03;3.87;0.55;3.18;0.64;1.74;0.26;1.77;0.28;5.35;0.8;;;;;;;;17.35;ICPMS;;;;;18.9;ICPMS;;;2.6;;;;;;;;;;;;;;;;;;;;;;;;;;;;;;;;;;;;;;;;;;;;;;;;;;;;;;;;;;;;;;;;;;;;;;;;;;;;;;;;
2015;[19926] YANG WU-BIN (2015);samp. TW4-2;;CENTRAL ASIAN FOLDBELT - MESOZOIC / CHINA - MESOZOIC / HEILONGJIANG PROVINCE / MANITU FORMATION;TUQUAN;45.5386;121.1825;45.5386;121.1825;;;OUTCROP;;;SUBAERIAL;VOLCANIC ROCK;TRACHYDACITE;;;;;CRETACEOUS;LOWER;;;;WHOLE ROCK;;;;;;;;;;;;;64.39;0.62;;;16.22;;;;;;;;;4.83;;;;3.81;1.69;0.08;;;;;;;3.24;XRF;;;4.22;0.19;;;;;;;;;;;;;;0.7;;;;;;;;;;;;;;;;;;;;;;;;;7.48;ICPMS;;;3642;ICPMS;;;86.69;29.16;600;;9.77;3.4;8.22;65.87;19.46;1.87;;;;39.1;ICPMS;;;349;ICPMS;;;14.12;ICPMS;;;217;ICPMS;;;6.31;ICPMS;;;;;;;;;;;;;4.62;380;ICPMS;;;16.95;ICPMS;;;40.86;ICPMS;;;5.17;20.12;ICPMS;;;4.01;ICPMS;;;0.93;3.46;0.52;2.97;0.61;1.66;0.26;1.73;0.28;5.95;0.84;;;;;;;;15.71;ICPMS;;;;;14.41;ICPMS;;;2.33;;;;;;;;;;;;;;;;;;;;;;;;;;;;;;;;;;;;;;;;;;;;;;;;;;;;;;;;;;;;;;;;;;;;;;;;;;;;;;;;
2015;[19926] YANG WU-BIN (2015);samp. TW4-3;;CENTRAL ASIAN FOLDBELT - MESOZOIC / CHINA - MESOZOIC / HEILONGJIANG PROVINCE / MANITU FORMATION;TUQUAN;45.5386;121.1825;45.5386;121.1825;;;OUTCROP;;;SUBAERIAL;VOLCANIC ROCK;TRACHYDACITE;;;;;CRETACEOUS;LOWER;;;;WHOLE ROCK;;;;;;;;;;;;;64.18;0.62;;;16.35;;;;;;;;;4.86;;;;3.8;1.7;0.08;;;;;;;3.24;XRF;;;4.3;0.19;;;;;;;;;;;;;;0.68;;;;;;;;;;;;;;;;;;;;;;;;;9.83;ICPMS;;;3737;ICPMS;;;72.77;30.12;591;;9.97;3.51;8.13;68.39;20.24;1.9;;;;111;ICPMS;;;485;ICPMS;;;15.66;ICPMS;;;171;ICPMS;;;6.28;ICPMS;;;;;;;;;;;;;5.65;550;ICPMS;;;27.94;ICPMS;;;55.91;ICPMS;;;6.56;24.21;ICPMS;;;4.42;ICPMS;;;1.02;3.78;0.54;3.07;0.62;1.68;0.26;1.74;0.28;4.77;0.8;;;;;;;;17.41;ICPMS;;;;;17.97;ICPMS;;;2.32;;;;;;;;;;;;;;;;;;;;;;;;;;;;;;;;;;;;;;;;;;;;;;;;;;;;;;;;;;;;;;;;;;;;;;;;;;;;;;;;
2015;[19926] YANG WU-BIN (2015);samp. TW9-1;;CENTRAL ASIAN FOLDBELT - MESOZOIC / CHINA - MESOZOIC / HEILONGJIANG PROVINCE / MANITU FORMATION;TUQUAN;45.6325;121.3817;45.6325;121.3817;;;OUTCROP;;;SUBAERIAL;VOLCANIC ROCK;TRACHYDACITE;;;;;CRETACEOUS;LOWER;;;;WHOLE ROCK;;;;;;;;;;;;;63.69;0.76;;;16.66;;;;;;;;;5.06;;;;3.08;1.44;0.06;;;;;;;2.91;XRF;;;4.28;0.26;;;;;;;;;;;;;;1.79;;;;;;;;;;;;;;;;;;;;;;;;;8.24;ICPMS;;;4148;ICPMS;;;61.87;19.74;387;;7.36;2.06;8.98;74.44;19.21;1.02;;;;69.85;ICPMS;;;425;ICPMS;;;15.21;ICPMS;;;225;ICPMS;;;5.04;ICPMS;;;;;;;;;;;;;5.88;799;ICPMS;;;21.78;ICPMS;;;45.88;ICPMS;;;5.92;23.64;ICPMS;;;4.52;ICPMS;;;1.22;3.85;0.57;3.19;0.63;1.7;0.25;1.61;0.25;5.65;0.43;;;;;;;;15.27;ICPMS;;;;;6.88;ICPMS;;;2.38;;;;;;;;;;;;;;;;;;;;;;;;;;;;;;;;;;;;;;;;;;;;;;;;;;;;;;;;;;;;;;;;;;;;;;;;;;;;;;;;
2015;[19926] YANG WU-BIN (2015);samp. TW9-2;;CENTRAL ASIAN FOLDBELT - MESOZOIC / CHINA - MESOZOIC / HEILONGJIANG PROVINCE / MANITU FORMATION;TUQUAN;45.6325;121.3817;45.6325;121.3817;;;OUTCROP;;;SUBAERIAL;VOLCANIC ROCK;TRACHYDACITE;;;;;CRETACEOUS;LOWER;;;;WHOLE ROCK;;;;;;;;;;;;;64.36;0.74;;;16.53;;;;;;;;;4.75;;;;3.06;1.24;0.06;;;;;;;2.93;XRF;;;4.24;0.26;;;;;;;;;;;;;;1.81;;;;;;;;;;;;;;;;;;;;;;;;;10.91;ICPMS;;;4594;ICPMS;;;69.58;25.32;478;;9.03;2.89;11.72;84.16;20.56;1.96;;;;80.36;ICPMS;;;432;ICPMS;;;16.62;ICPMS;;;255;ICPMS;;;5.68;ICPMS;;;;;;;;;;;;;6.58;784;ICPMS;;;22.94;ICPMS;;;48.19;ICPMS;;;6.25;24.83;ICPMS;;;4.82;ICPMS;;;1.3;4.18;0.61;3.45;0.69;1.84;0.27;1.74;0.27;6.39;0.48;;;;;;;;13.61;ICPMS;;;;;7.27;ICPMS;;;2.64;;;;;;;;;;;;;;;;;;;;;;;;;;;;;;;;;;;;;;;;;;;;;;;;;;;;;;;;;;;;;;;;;;;;;;;;;;;;;;;;
2015;[19926] YANG WU-BIN (2015);samp. TW4;;CENTRAL ASIAN FOLDBELT - MESOZOIC / CHINA - MESOZOIC / HEILONGJIANG PROVINCE / MANITU FORMATION;TUQUAN;45.5386;121.1825;45.5386;121.1825;;;OUTCROP;;;SUBAERIAL;VOLCANIC ROCK;TRACHYDACITE;;;;;CRETACEOUS;LOWER;;;;MINERAL / COMPONENT (INCL. GROUNDMASS);ZIRCON;;;;PRIMARY;;;;;;;;;;;;;;;;;;;;;;;;;;;;;;;;;;;;;;;;;;;;;;;;;;;;;;;;;;;;;;;;;;;;;;;;;;;;;;;;;;;;;;;;;;;;;;;;;;;;;;;;;;;;;;;;;;;;;;;;;;;;;;;;;;;;;;;;;;;;;;;;;;;;;;;;;;;;;;;;;;;;;;;;;;;;;;;1075;Q_ICPMS_LA;;;2555;;;;;;;;;;;;;;;;;0.0514;;;;;;;;;;;;;;;;0.02024;0.1437;;;;;;;;;;;;;;;;;;;;;;;;;;;;;;;;;;;;;259;136;129;PB206_U238 AGE;;;;;;