Year;CITATION;SAMPLE NAME;UNIQUE_ID;LOCATION;LOCATION COMMENT;LATITUDE (MIN.);LONGITUDE (MIN.);LATITUDE (MAX.);LONGITUDE (MAX.);ELEVATION (MIN.);ELEVATION (MAX.);SAMPLING TECHNIQUE;DRILLING DEPTH (MIN.);DRILLING DEPTH (MAX.);LAND/SEA (SAMPLING);ROCK TYPE;ROCK NAME;ROCK TEXTURE;SAMPLE COMMENT;AGE (MIN.);AGE (MAX.);GEOLOGICAL AGE;GEOLOGICAL AGE PREFIX;ERUPTION YEAR;ALTERATION;ALTERATION TYPE;TYPE OF MATERIAL;MINERAL / COMPONENT;SPOT (MINERAL);CRYSTAL;RIM / CORE (MINERAL GRAINS);PRIMARY/SECONDARY;INCLUSION TYPE;SPOT (INCLUSION);MINERAL (INCLUSION);RIM / CORE (INCLUSION);HOSTMINERAL (INCLUSION);HEATING;HEATING TEMPERATURE (?C);SIO2(WT%);TIO2(WT%);ZRO2(WT%);B2O3(WT%);AL2O3(WT%);CR2O3(WT%);LA2O3(WT%);CE2O3(WT%);Y2O3(WT%);V2O3(WT%);NB2O3(WT%);TA2O5(WT%);WO3(WT%);FE2O3T(WT%);FE2O3(WT%);FEOT(WT%);FEO(WT%);CAO(WT%);MGO(WT%);MNO(WT%);BAO(WT%);SRO(WT%);NIO(WT%);ZNO(WT%);CS2O(WT%);RB2O(WT%);K2O(WT%);;;;NA2O(WT%);P2O5(WT%);H2O(WT%);;;;H2OP(WT%);H2OM(WT%);CO2(WT%);C(WT%);F(WT%);CL(WT%);SO2(WT%);SO3(WT%);S(WT%);LOI(WT%);AL(WT%);TI(WT%);FE(WT%);MG(WT%);CA(WT%);K(WT%);NA(WT%);LI(PPM);BE(PPM);B(PPM);C(PPM);F(PPM);NA(PPM);MG(PPM);AL(PPM);P(PPM);S(PPM);CL(PPM);AR40(AT/G);AR40(CCMSTP/G);AR40(MOL/G);AR40(PPB);K(PPM);CA(PPM);SC(PPM);;;;TI(PPM);;;;V(PPM);CR(PPM);MN(PPM);FE(PPM);CO(PPM);NI(PPM);CU(PPM);ZN(PPM);GA(PPM);GE(PPM);AS(PPM);SE(PPM);BR(PPM);RB(PPM): altern. values or methods;;;;SR(PPM): altern. values or methods;;;;Y(PPM): altern. values or methods;;;;ZR(PPM): altern. values or methods;;;;NB(PPM): altern. values or methods;;;;MO(PPM): altern. values or methods;;;;AG(PPM);CD(PPM);IN(PPM);SN(PPM);SB(PPM);TE(PPM);CS(PPM);BA(PPM): altern. values or methods;;;;LA(PPM): altern. values or methods;;;;CE(PPM): altern. values or methods;;;;PR(PPM);ND(PPM): altern. values or methods;;;;SM(PPM): altern. values or methods;;;;EU(PPM);GD(PPM);TB(PPM);DY(PPM);HO(PPM);ER(PPM);TM(PPM);YB(PPM);LU(PPM);HF(PPM);TA(PPM);W(PPM);RE(PPM);AU(PPM);AU(PPB);HG(PPM);HG(PPB);TL(PPM);PB(PPM): altern. values or methods;;;;PB206(PPM);BI(PPM);TH(PPM): altern. values or methods;;;;U(PPM);ND143_ND144;ND143_ND144_INI;EPSILON_ND;EPSILON_ND_INI;SM147_ND144;SR87_SR86;SR87_SR86_INI;EPSILON_SR;EPSILON_SR_INI;RB87_SR86;PB206_PB204;PB206_PB204_INI;PB206_PB207;PB206_PB208;PB207_PB204;PB207_PB204_INI;PB207_PB206;PB208_PB204;PB208_PB204_INI;PB208_PB206;HF176_HF177;HF176_HF177_INI;EPSILON_HF_INI;LU176_HF177;YB176_HF177;AR36_AR39;AR36_AR40;AR37_AR39;AR38_AR39;AR39_AR40;AR40_AR36;AR40_AR39;PB206_U238;PB207_U235;PB208_TH232;TH232_PB204;TH232_U238;U235_PB204;U238_PB204;U238_PB206;D7LI(VS LSVEC);D18O(PER MIL);D18O(VS SMOW);D18O(VS VSMOW);D56FE(VS IRMM-014);D57FE(VS IRMM-014);DD(VS SMOW);ALBITE(MOL%);ANORTHITE(MOL%);CA OLIVINE(MOL%);ENSTATITE(MOL%);FAYALITE(MOL%);FORSTERITE(MOL%);FERROSILITE(MOL%);ORTHOCLASE(MOL%);TEPHROITE(MOL%);ULVOSPINEL(MOL%);WOLLASTONITE(MOL%);AGE(KA): altern. values or methods;;;;AGE(MA): altern. values or methods;;;;;;;;AGE_PB207_PB206(MA);AGE_PB207_U235(MA);AGE_PB206_U238(MA): altern. values or methods;;;;;;AGE_PB208_TH232(MA);
2008;[11185] MCCURRY M. (2008);samp. F36;;YELLOWSTONE-SNAKE RIVER PLAIN VOLCANIC PROVINCE / SNAKE RIVER PLAIN;EAST SIDE OF BIG SOUTHERN BUTTE, NORTHERN NEVADA;43.4072;-112.0131;43.4072;-112.0131;;;OUTCROP;;;SUBAERIAL;VOLCANIC ROCK;TRACHYDACITE;;;16700000;16700000;MIOCENE;MIDDLE;;;;WHOLE ROCK;;;;;;;;;;;;;65.5;0.63;;;13.7;;;;;;;;;;;8.3;;2.8;0.16;0.25;;;;;;;5.01;ICPAES;;;3.51;0.1;;;;;;;;;;;;;;1.93;;;;;;;;;;;;;;;;;;;;;;;;;;;;;;;;;;;;;;;;;;;;;;136;ICPAES;;;47;ICPAES;;;162;ICPAES;;;2010;ICPAES;;;;;;;;;;;;;;;;;;1978;ICPAES;;;;;;;;;;;;;;;;;;;;;;;;;;;;;;;;;;;;;;;;;;;;;;;;;;;;;;;;;;;;;;;;;;;;;;;;;;;;;;;;;;;;;;;;;;;;;;;;;;;;;;;;;;;;;;;;;;;;;;;;;;;;;;;;
2008;[11185] MCCURRY M. (2008);samp. F37;;YELLOWSTONE-SNAKE RIVER PLAIN VOLCANIC PROVINCE / SNAKE RIVER PLAIN;EAST SIDE OF BIG SOUTHERN BUTTE, NORTHERN NEVADA;43.4072;-112.0131;43.4072;-112.0131;;;OUTCROP;;;SUBAERIAL;VOLCANIC ROCK;TRACHYDACITE;;;16700000;16700000;MIOCENE;MIDDLE;;;;WHOLE ROCK;;;;;;;;;;;;;65.8;0.61;;;13.6;;;;;;;;;;;8.36;;2.83;0.2;0.18;;;;;;;4.74;ICPAES;;;3.57;0.11;;;;;;;;;;;;;;2.57;;;;;;;;;;;;;;;;;;;;;;;;;;;;;;;;;;;;;;;;;;;;;;162;ICPAES;;;52;ICPAES;;;163;ICPAES;;;1960;ICPAES;;;;;;;;;;;;;;;;;;1860;ICPAES;;;;;;;;;;;;;;;;;;;;;;;;;;;;;;;;;;;;;;;;;;;;;;;;;;;;;;;;;;;;;;;;;;;;;;;;;;;;;;;;;;;;;;;;;;;;;;;;;;;;;;;;;;;;;;;;;;;;;;;;;;;;;;;;
2008;[11185] MCCURRY M. (2008);samp. 45;;YELLOWSTONE-SNAKE RIVER PLAIN VOLCANIC PROVINCE / SNAKE RIVER PLAIN;CEDAR BUTTE, NORTHERN NEVADA;43.4114;-112.8997;43.4114;-112.8997;;;OUTCROP;;;SUBAERIAL;VOLCANIC ROCK;TRACHYDACITE;;;16700000;16700000;MIOCENE;MIDDLE;;;;WHOLE ROCK;;;;;;;;;;;;;65.9;0.53;;;13.7;;;;;;;;;;;7.63;;2.55;0.11;0.24;;;;;;;5.22;ICPAES;;;4.12;0.08;;;;;;;;;;;;;;0.94;;;;;;;;;;;;;;;;;;;;;;;;;;;;;;;;;;;;;;;;;;;;;;144;ICPAES;;;29;ICPAES;;;173;ICPAES;;;1847;ICPAES;;;;;;;;;;;;;;;;;;1768;ICPAES;;;;;;;;;;;;;;;;;;;;;;;;;;;;;;;;;;;;;;;;;;;;;;;;;;;;;;;;;;;;;;;;;;;;;;;;;;;;;;;;;;;;;;;;;;;;;;;;;;;;;;;;;;;;;;;;;;;;;;;;;;;;;;;;
2008;[11185] MCCURRY M. (2008);samp. 3B;;YELLOWSTONE-SNAKE RIVER PLAIN VOLCANIC PROVINCE / SNAKE RIVER PLAIN;CEDAR BUTTE, NORTHERN NEVADA;43.3889;-112.9075;43.3889;-112.9075;;;OUTCROP;;;SUBAERIAL;VOLCANIC ROCK;TRACHYDACITE;;;16700000;16700000;MIOCENE;MIDDLE;;;;WHOLE ROCK;;;;;;;;;;;;;67.5;0.46;;;13.5;;;;;;;;;;;6.68;;1.91;0.13;0.21;;;;;;;5.3;ICPAES;;;4.21;0.08;;;;;;;;;;;;;;3.41;;;;;;;;;;;;;;;;;;;;;;;;;;;;;;;;;;;;;;;;;;;;;;154;ICPAES;;;25;ICPAES;;;193;ICPAES;;;1563;ICPAES;;;;;;;;;;;;;;;;;;1654;ICPAES;;;;;;;;;;;;;;;;;;;;;;;;;;;;;;;;;;;;;;;;;;;;;;;;;;;;;;;;;;;;;;;;;;;;;;;;;;;;;;;;;;;;;;;;;;;;;;;;;;;;;;;;;;;;;;;;;;;;;;;;;;;;;;;;
2008;[11185] MCCURRY M. (2008);samp. 13;;YELLOWSTONE-SNAKE RIVER PLAIN VOLCANIC PROVINCE / SNAKE RIVER PLAIN;CEDAR BUTTE, NORTHERN NEVADA;43.3861;-112.9044;43.3861;-112.9044;;;OUTCROP;;;SUBAERIAL;VOLCANIC ROCK;TRACHYDACITE;;;16700000;16700000;MIOCENE;MIDDLE;;;;WHOLE ROCK;;;;;;;;;;;;;67.5;0.44;;;13.8;;;;;;;;;;;6.81;;1.81;0.17;0.15;;;;;;;5.26;ICPAES;;;4.01;0.05;;;;;;;;;;;;;;1.36;;;;;;;;;;;;;;;;;;;;;;;;;;;;;;;;;;;;;;;;;;;;;;156;ICPAES;;;22;ICPAES;;;190;ICPAES;;;1566;ICPAES;;;;;;;;;;;;;;;;;;1615;ICPAES;;;;;;;;;;;;;;;;;;;;;;;;;;;;;;;;;;;;;;;;;;;;;;;;;;;;;;;;;;;;;;;;;;;;;;;;;;;;;;;;;;;;;;;;;;;;;;;;;;;;;;;;;;;;;;;;;;;;;;;;;;;;;;;;
2008;[11185] MCCURRY M. (2008);samp. 14C;;YELLOWSTONE-SNAKE RIVER PLAIN VOLCANIC PROVINCE / SNAKE RIVER PLAIN;CEDAR BUTTE, NORTHERN NEVADA;43.4189;-112.9031;43.4189;-112.9031;;;OUTCROP;;;SUBAERIAL;VOLCANIC ROCK;TRACHYDACITE;;;16700000;16700000;MIOCENE;MIDDLE;;;;WHOLE ROCK;;;;;;;;;;;;;67.6;0.44;;;13.7;;;;;;;;;;;6.38;;2.11;0.13;0.2;;;;;;;5.41;ICPAES;;;3.95;0.04;;;;;;;;;;;;;;0.4;;;;;;;;;;;;;;;;;;;;;;;;;;;;;;;;;;;;;;;;;;;;;;155;ICPAES;;;16;ICPAES;;;210;ICPAES;;;1544;ICPAES;;;;;;;;;;;;;;;;;;1636;ICPAES;;;;;;;;;;;;;;;;;;;;;;;;;;;;;;;;;;;;;;;;;;;;;;;;;;;;;;;;;;;;;;;;;;;;;;;;;;;;;;;;;;;;;;;;;;;;;;;;;;;;;;;;;;;;;;;;;;;;;;;;;;;;;;;;
2008;[11185] MCCURRY M. (2008);samp. 2C1;;YELLOWSTONE-SNAKE RIVER PLAIN VOLCANIC PROVINCE / SNAKE RIVER PLAIN;CEDAR BUTTE, NORTHERN NEVADA;43.3839;-112.9081;43.3839;-112.9081;;;OUTCROP;;;SUBAERIAL;VOLCANIC ROCK;TRACHYDACITE;;;16700000;16700000;MIOCENE;MIDDLE;;;;WHOLE ROCK;;;;;;;;;;;;;67.9;0.44;;;13.8;;;;;;;;;;;6.26;;1.5;0.17;0.2;;;;;;;5.33;ICPAES;;;4.29;0.12;;;;;;;;;;;;;;0.69;;;;;;;;;;;;;;;;;;;;;;;;;;;;;;;;;;;;;;;;;;;;;;173;ICPAES;;;17;ICPAES;;;207;ICPAES;;;1543;ICPAES;;;;;;;;;;;;;;;;;;1695;ICPAES;;;;;;;;;;;;;;;;;;;;;;;;;;;;;;;;;;;;;;;;;;;;;;;;;;;;;;;;;;;;;;;;;;;;;;;;;;;;;;;;;;;;;;;;;;;;;;;;;;;;;;;;;;;;;;;;;;;;;;;;;;;;;;;;
2008;[11185] MCCURRY M. (2008);samp. D13RB;;YELLOWSTONE-SNAKE RIVER PLAIN VOLCANIC PROVINCE / SNAKE RIVER PLAIN;CEDAR BUTTE, NORTHERN NEVADA;43.3933;-112.9739;43.3933;-112.9739;;;OUTCROP;;;SUBAERIAL;VOLCANIC ROCK;TRACHYDACITE;;;16700000;16700000;MIOCENE;MIDDLE;;;;MINERAL / COMPONENT (INCL. GROUNDMASS);PLAGIOCLASE;;;;PRIMARY;;;;;;;;60.2;0.05;;;24.6;;;;;;;;;;;0.3;;6.65;0.01;;;;;;;;1.29;EMP (EPMA);;;6.8;;;;;;;;;;;;;;;;;;;;;;;;;;;;;;;;;;;;;;;;;;;;;;;;;;;;;;;;;;;;;;;;;;;;;;;;;;;;;;;;;;;;;;;;;;;;;;;;;;;;;;;;;;;;;;;;;;;;;;;;;;;;;;;;;;;;;;;;;;;;;;;;;;;;;;;;;;;;;;;;;;;;;;;;;;;;;;;;;;;;;;;;;;;;;60.05;32.45;;;;;;7.5;;;;;;;;;;;;;;;;;;;;;;;;;
2008;[11185] MCCURRY M. (2008);samp. 36;;YELLOWSTONE-SNAKE RIVER PLAIN VOLCANIC PROVINCE / SNAKE RIVER PLAIN;CEDAR BUTTE, NORTHERN NEVADA;43.4017;-112.9169;43.4017;-112.9169;;;OUTCROP;;;SUBAERIAL;VOLCANIC ROCK;TRACHYDACITE;;;16700000;16700000;MIOCENE;MIDDLE;;;;MINERAL / COMPONENT (INCL. GROUNDMASS);PLAGIOCLASE;;;;PRIMARY;;;;;;;;59.4;0.02;;;25.3;;;;;;;;;;;0.39;;7.16;0.01;;;;;;;;1.16;EMP (EPMA);;;6.56;;;;;;;;;;;;;;;;;;;;;;;;;;;;;;;;;;;;;;;;;;;;;;;;;;;;;;;;;;;;;;;;;;;;;;;;;;;;;;;;;;;;;;;;;;;;;;;;;;;;;;;;;;;;;;;;;;;;;;;;;;;;;;;;;;;;;;;;;;;;;;;;;;;;;;;;;;;;;;;;;;;;;;;;;;;;;;;;;;;;;;;;;;;;;58.16;35.08;;;;;;6.77;;;;;;;;;;;;;;;;;;;;;;;;;
2008;[11185] MCCURRY M. (2008);samp. D13RB;;YELLOWSTONE-SNAKE RIVER PLAIN VOLCANIC PROVINCE / SNAKE RIVER PLAIN;CEDAR BUTTE, NORTHERN NEVADA;43.3933;-112.9739;43.3933;-112.9739;;;OUTCROP;;;SUBAERIAL;VOLCANIC ROCK;TRACHYDACITE;;;16700000;16700000;MIOCENE;MIDDLE;;;;MINERAL / COMPONENT (INCL. GROUNDMASS);(AL)KALIFELDSPAR;;;;PRIMARY;;;;;;;;67.4;0.01;;;18.1;;;;;;;;;;;0.1;;0.42;0;;;;;;;;7;EMP (EPMA);;;6;;;;;;;;;;;;;;;;;;;;;;;;;;;;;;;;;;;;;;;;;;;;;;;;;;;;;;;;;;;;;;;;;;;;;;;;;;;;;;;;;;;;;;;;;;;;;;;;;;;;;;;;;;;;;;;;;;;;;;;;;;;;;;;;;;;;;;;;;;;;;;;;;;;;;;;;;;;;;;;;;;;;;;;;;;;;;;;;;;;;;;;;;;;;;55.36;2.14;;;;;;42.5;;;;;;;;;;;;;;;;;;;;;;;;;
2008;[11185] MCCURRY M. (2008);samp. 36;;YELLOWSTONE-SNAKE RIVER PLAIN VOLCANIC PROVINCE / SNAKE RIVER PLAIN;CEDAR BUTTE, NORTHERN NEVADA;43.4017;-112.9169;43.4017;-112.9169;;;OUTCROP;;;SUBAERIAL;VOLCANIC ROCK;TRACHYDACITE;;;16700000;16700000;MIOCENE;MIDDLE;;;;MINERAL / COMPONENT (INCL. GROUNDMASS);(AL)KALIFELDSPAR;;;;PRIMARY;;;;;;;;65.9;0.01;;;19;;;;;;;;;;;0.13;;0.74;0;;;;;;;;7.63;EMP (EPMA);;;5.54;;;;;;;;;;;;;;;;;;;;;;;;;;;;;;;;;;;;;;;;;;;;;;;;;;;;;;;;;;;;;;;;;;;;;;;;;;;;;;;;;;;;;;;;;;;;;;;;;;;;;;;;;;;;;;;;;;;;;;;;;;;;;;;;;;;;;;;;;;;;;;;;;;;;;;;;;;;;;;;;;;;;;;;;;;;;;;;;;;;;;;;;;;;;;50.5;3.73;;;;;;45.77;;;;;;;;;;;;;;;;;;;;;;;;;
2008;[11185] MCCURRY M. (2008);samp. 14C;;YELLOWSTONE-SNAKE RIVER PLAIN VOLCANIC PROVINCE / SNAKE RIVER PLAIN;CEDAR BUTTE, NORTHERN NEVADA;43.4189;-112.9031;43.4189;-112.9031;;;OUTCROP;;;SUBAERIAL;VOLCANIC ROCK;TRACHYDACITE;;;16700000;16700000;MIOCENE;MIDDLE;;;;MINERAL / COMPONENT (INCL. GROUNDMASS);(AL)KALIFELDSPAR;;;;PRIMARY;;;;;;;;66;0.01;;;20;;;;;;;;;;;0.15;;1.21;0;;;;;;;;6.77;EMP (EPMA);;;6.03;;;;;;;;;;;;;;;;;;;;;;;;;;;;;;;;;;;;;;;;;;;;;;;;;;;;;;;;;;;;;;;;;;;;;;;;;;;;;;;;;;;;;;;;;;;;;;;;;;;;;;;;;;;;;;;;;;;;;;;;;;;;;;;;;;;;;;;;;;;;;;;;;;;;;;;;;;;;;;;;;;;;;;;;;;;;;;;;;;;;;;;;;;;;;54.07;6;;;;;;39.94;;;;;;;;;;;;;;;;;;;;;;;;;
2008;[11185] MCCURRY M. (2008);samp. 36;;YELLOWSTONE-SNAKE RIVER PLAIN VOLCANIC PROVINCE / SNAKE RIVER PLAIN;CEDAR BUTTE, NORTHERN NEVADA;43.4017;-112.9169;43.4017;-112.9169;;;OUTCROP;;;SUBAERIAL;VOLCANIC ROCK;TRACHYDACITE;;;16700000;16700000;MIOCENE;MIDDLE;;;;MINERAL / COMPONENT (INCL. GROUNDMASS);CLINOPYROXENE;;;;PRIMARY;;;;;;;;50.4;0.88;;;1.96;0;;;;;;;;;;17.5;;18.17;9.95;0.68;;;;;;;0;EMP (EPMA);;;0.36;;;;;;;;;;;;;;;;;;;;;;;;;;;;;;;;;;;;;;;;;;;;;;;;;;;;;;;;;;;;;;;;;;;;;;;;;;;;;;;;;;;;;;;;;;;;;;;;;;;;;;;;;;;;;;;;;;;;;;;;;;;;;;;;;;;;;;;;;;;;;;;;;;;;;;;;;;;;;;;;;;;;;;;;;;;;;;;;;;;;;;;;;;;;;;;;30.29;;;29.95;;;;39.76;;;;;;;;;;;;;;;;;;;;;;
2008;[11185] MCCURRY M. (2008);samp. D13RB;;YELLOWSTONE-SNAKE RIVER PLAIN VOLCANIC PROVINCE / SNAKE RIVER PLAIN;CEDAR BUTTE, NORTHERN NEVADA;43.3933;-112.9739;43.3933;-112.9739;;;OUTCROP;;;SUBAERIAL;VOLCANIC ROCK;TRACHYDACITE;;;16700000;16700000;MIOCENE;MIDDLE;;;;MINERAL / COMPONENT (INCL. GROUNDMASS);OLIVINE;;;;PRIMARY;;;;;;;;29.5;0.05;;;;0;;;;;;;;;;64.3;;0.67;0.03;3.31;;;;;;;;;;;0.01;;;;;;;;;;;;;;;;;;;;;;;;;;;;;;;;;;;;;;;;;;;;;;;;;;;;;;;;;;;;;;;;;;;;;;;;;;;;;;;;;;;;;;;;;;;;;;;;;;;;;;;;;;;;;;;;;;;;;;;;;;;;;;;;;;;;;;;;;;;;;;;;;;;;;;;;;;;;;;;;;;;;;;;;;;;;;;;;;;;;;;;;;;;;;;;;;99.92;0.08;;;;;;;;;;;;;;;;;;;;;;;;;;;
2008;[11185] MCCURRY M. (2008);samp. 36;;YELLOWSTONE-SNAKE RIVER PLAIN VOLCANIC PROVINCE / SNAKE RIVER PLAIN;CEDAR BUTTE, NORTHERN NEVADA;43.4017;-112.9169;43.4017;-112.9169;;;OUTCROP;;;SUBAERIAL;VOLCANIC ROCK;TRACHYDACITE;;;16700000;16700000;MIOCENE;MIDDLE;;;;MINERAL / COMPONENT (INCL. GROUNDMASS);OLIVINE;;;;PRIMARY;;;;;;;;31.7;0.06;;;;0.01;;;;;;;;;;55.6;;0.52;9.04;2.06;;;;;;;;;;;0.01;;;;;;;;;;;;;;;;;;;;;;;;;;;;;;;;;;;;;;;;;;;;;;;;;;;;;;;;;;;;;;;;;;;;;;;;;;;;;;;;;;;;;;;;;;;;;;;;;;;;;;;;;;;;;;;;;;;;;;;;;;;;;;;;;;;;;;;;;;;;;;;;;;;;;;;;;;;;;;;;;;;;;;;;;;;;;;;;;;;;;;;;;;;;;;;;;77.53;22.47;;;;;;;;;;;;;;;;;;;;;;;;;;;
2008;[11185] MCCURRY M. (2008);samp. 14C;;YELLOWSTONE-SNAKE RIVER PLAIN VOLCANIC PROVINCE / SNAKE RIVER PLAIN;CEDAR BUTTE, NORTHERN NEVADA;43.4189;-112.9031;43.4189;-112.9031;;;OUTCROP;;;SUBAERIAL;VOLCANIC ROCK;TRACHYDACITE;;;16700000;16700000;MIOCENE;MIDDLE;;;;MINERAL / COMPONENT (INCL. GROUNDMASS);OLIVINE;;;;PRIMARY;;;;;;;;29.5;0.08;;;;0.01;;;;;;;;;;64.6;;0.7;0.4;2.87;;;;;;;;;;;0.02;;;;;;;;;;;;;;;;;;;;;;;;;;;;;;;;;;;;;;;;;;;;;;;;;;;;;;;;;;;;;;;;;;;;;;;;;;;;;;;;;;;;;;;;;;;;;;;;;;;;;;;;;;;;;;;;;;;;;;;;;;;;;;;;;;;;;;;;;;;;;;;;;;;;;;;;;;;;;;;;;;;;;;;;;;;;;;;;;;;;;;;;;;;;;;;;;98.91;1.09;;;;;;;;;;;;;;;;;;;;;;;;;;;
2008;[11849] POPOV V. K. (2008);samp. P-509/1;;CENTRAL ASIAN FOLDBELT - CENOZOIC/QUATERNARY / CHINA - CENOZOIC/QUATERNARY / JILIN PROVINCE / CHANGBAISHAN (BAEKDUSAN/PAEKTSUAN)-BAITOUSHAN(P(A);;42;128.07;42;128.07;;;OUTCROP;;;SUBAERIAL;VOLCANIC ROCK;TRACHYDACITE;;"ALKALINE; VOLCANIC CONE";;;QUATERNARY;;;;;WHOLE ROCK;;;;;;;;;;;;;66.24;0.34;;;15.59;;;;;;;;;;2.1;;2.44;0.89;0;0.13;;;;;;;5.02;WET;;;6.3;0.13;;;;;;0;;;;;;;;0.37;;;;;;;;37.7;10.83;;;1805;;;;;95;1500;;;;;;;3;XRF;;;;;;;3;6;;;1;2;7;199;38;2.1;;;;231;XRF;;;20;XRF;;;78;XRF;;;1704;XRF;;;168.27;XRF;;;11.4;XRF;;;;;;10.3;0.25;;3.66;26;XRF;;;155.78;XRF;;;327.78;XRF;;;33.98;116.87;XRF;;;21;XRF;;;0.42;26.3;1.3;16.43;3.58;8.4;1.28;9.26;1.32;45.16;10.53;6.09;;;;;;;21.42;XRF;;;;;27.74;XRF;;;5.59;0.512591;;;;;0.708;;;;;;;;;;;;;;;;;;;;;;;;;;;;;;;;;;;;;6.2;;;;;;;;;;;;;;;;;;;;;;;;;;;;;;;;;;;;;
2008;[11867] ALTUNKAYNAK S.(2008)  [GeoReM [4169] ];samp. 106;;ANATOLIA-IRAN BELT / TURKEY / WESTERN ANATOLIAN VOLCANIC BELT;BIGA PENINSULA;39.5;26;40;27;;;OUTCROP;;;SUBAERIAL;VOLCANIC ROCK;TRACHYDACITE;;;;;CENOZOIC;;;;;WHOLE ROCK;;;;;;;;;;;;;65.07;0.47;;;16.94;;;;;;;;;4.27;;;;3.04;0.88;0.05;;;;;;;2.47;ICPAES;;;5.4;0.14;;;;;;;;;;;;;;1.1;;;;;;;;;;;;;;;;;;;;;;;;;10;ICPMS;;;;;;;106;13.685;;;8.7;5;10;45;14.9;;;;;86.6;ICPMS;;;496.1;ICPMS;;;16.4;ICPMS;;;133;ICPMS;;;5.8;ICPMS;;;;;;;;;;;;;3.8;687;ICPMS;;;21.2;ICPMS;;;39;ICPMS;;;4.64;18.8;ICPMS;;;3.6;ICPMS;;;1.02;3.01;0.47;2.74;0.57;1.73;0.31;1.83;0.3;4;0.3;;;;;;;;3.5;ICPMS;;;;;6.4;ICPMS;;;2.3;;;;;;;;;;;;;;;;;;;;;;;;;;;;;;;;;;;;;;;;;;;;;;;;;;;;;;;;;;;;;;;;;;;;;;;;;;;;;;;;
2008;[11867] ALTUNKAYNAK S.(2008)  [GeoReM [4169] ];samp. 9A;;ANATOLIA-IRAN BELT / TURKEY / WESTERN ANATOLIAN VOLCANIC BELT;BIGA PENINSULA;39.5;26;40;27;;;OUTCROP;;;SUBAERIAL;VOLCANIC ROCK;TRACHYDACITE;;;;;CENOZOIC;;;;;WHOLE ROCK;;;;;;;;;;;;;65.44;0.59;;;15.27;;;;;;;;;4.96;;;;3.7;1.08;0.04;;;;;;;3.38;ICPAES;;;3.24;0.19;;;;;;;;;;;;;;1.2;;;;;;;;;;;;;;;;;;;;;;;;;9;ICPMS;;;;;;;81;6.15825;;;8.9;2.2;5.4;23;17.2;;;;;126.6;ICPMS;;;643.3;ICPMS;;;22.1;ICPMS;;;174.7;ICPMS;;;14;ICPMS;;;;;;;;;;;;;4;1168;ICPMS;;;45.8;ICPMS;;;86.9;ICPMS;;;9.57;0.34;ICPMS;;;5.7;ICPMS;;;1.4;4.51;0.68;3.39;0.68;1.95;0.34;2.19;0.34;5;1.3;;;;;;;;3.8;ICPMS;;;;;29.3;ICPMS;;;7.3;;;;;;;;;;;;;;;;;;;;;;;;;;;;;;;;;;;;;;;;;;;;;;;;;;;;;;;;;;;;;;;;;;;;;;;;;;;;;;;;
2008;[11867] ALTUNKAYNAK S.(2008)  [GeoReM [4169] ];samp. 53;;ANATOLIA-IRAN BELT / TURKEY / WESTERN ANATOLIAN VOLCANIC BELT;BIGA PENINSULA;39.5;26;40;27;;;OUTCROP;;;SUBAERIAL;VOLCANIC ROCK;TRACHYDACITE;;;;;CENOZOIC;;;;;WHOLE ROCK;;;;;;;;;;;;;66.69;0.53;;;14.62;;;;;;;;;4.09;;;;3.84;1.9;0.06;;;;;;;3.83;ICPAES;;;2.85;0.25;;;;;;;;;;;;;;0.5;;;;;;;;;;;;;;;;;;;;;;;;;11;ICPMS;;;;;;;87;34.2125;;;11.7;11.7;15;37;16.5;;;;;102.1;ICPMS;;;657.7;ICPMS;;;20.1;ICPMS;;;166.3;ICPMS;;;10.9;ICPMS;;;;;;;;;;;;;1.9;1469;ICPMS;;;43.1;ICPMS;;;84.3;ICPMS;;;9.43;34.5;ICPMS;;;6.7;ICPMS;;;1.36;5.26;0.7;3.3;0.72;1.66;0.27;1.68;0.25;4.4;0.6;;;;;;;;9.1;ICPMS;;;;;18.7;ICPMS;;;6.9;;;;;;;;;;;;;;;;;;;;;;;;;;;;;;;;;;;;;;;;;;;;;;;;;;;;;;;;;;;;;;;;;;;;;;;;;;;;;;;;
2008;[11885] ZHANG XIAOHUI(2008)  [GeoReM [3718] ];samp. XL04-12;;CENTRAL ASIAN FOLDBELT - PALEOZOIC / CHINA - PALEOZOIC / INNER MONGOLIA / XILINHOTE COMPLEX - DASHIZHAI FORMATION;;44.3018;116.1398;44.3018;116.1398;;;OUTCROP;;;SUBAERIAL;VOLCANIC ROCK;TRACHYDACITE;PORPHYRITIC, GLASSY GROUNDMASS;;280000000;280000000;PERMIAN;;;FRESH;;WHOLE ROCK;;;;;;;;;;;;;65.96;0.37;;;15.5;;;;;;;;;;5.89;;;0.37;0.2;0.03;;;;;;;4.33;XRF;;;5.98;0.08;;;;;;;;;;;;;;0.8;;;;;;;;;;;;;;;;;;;;;;;;;19;ICPMS;;;;;;;7.52;4.98;;;1.9;2.49;;;18.3;;;;;113;ICPMS;;;88.1;ICPMS;;;64.5;ICPMS;;;456;ICPMS;;;11.4;ICPMS;;;;;;;;;;;;;6.46;593;ICPMS;;;30.8;ICPMS;;;73.1;ICPMS;;;9.32;39.1;ICPMS;;;10.1;ICPMS;;;1.44;10.6;1.93;12.2;2.62;7.52;1.17;7.42;1.15;12.3;0.93;;;;;;;;19.4;ICPMS;;;;;12.6;ICPMS;;;3.3;;;;;;;;;;;;;;;;;;;;;;;;;;;;;;;;;;;;;;;;;;;;;;;;;;;;;;;;;;;;;;;;;;;;;;;;;;;;;;;;
2008;[11885] ZHANG XIAOHUI(2008)  [GeoReM [3718] ];samp. XL04-16;;CENTRAL ASIAN FOLDBELT - PALEOZOIC / CHINA - PALEOZOIC / INNER MONGOLIA / XILINHOTE COMPLEX - DASHIZHAI FORMATION;;44.3018;116.1398;44.3018;116.1398;;;OUTCROP;;;SUBAERIAL;VOLCANIC ROCK;TRACHYDACITE;PORPHYRITIC, GLASSY GROUNDMASS;;280000000;280000000;PERMIAN;;;FRESH;;WHOLE ROCK;;;;;;;;;;;;;67.57;0.36;;;14.17;;;;;;;;;;7.12;;;0.88;0.25;0.06;;;;;;;4.22;XRF;;;3.28;0.07;;;;;;;;;;;;;;2.1;;;;;;;;;;;;;;;;;;;;;;;;;18.7;ICPMS;;;;;;;7.32;5.67;;;1.89;2.99;;;27.2;;;;;167;ICPMS;169.7;TIMS_ID;92.3;ICPMS;94.36;TIMS_ID;56.7;ICPMS;;;439;ICPMS;;;10.7;ICPMS;;;;;;;;;;;;;9.63;581;ICPMS;;;36.5;ICPMS;;;81.3;ICPMS;;;10.6;44.1;ICPMS;42.47;TIMS_ID;11;ICPMS;10.25;TIMS_ID;1.71;10.5;1.84;10.8;2.22;6.23;0.94;6.15;0.97;13;0.87;;;;;;;;18.6;ICPMS;;;;;13.1;ICPMS;;;3.3;0.51265;;;;0.146;0.724887;;;;5.204;18.815;;;;15.674;;;39.02;;;;;;;;;;;;;;;;;;46.87;;0.08;11.43;;;;;;;;;;;;;;;;;;;;;;;;;;;;;;;;;;;;;;;;;
2006;[12067] ZHANG JI-HENG (2006);samp. 9411-23;;CENTRAL ASIAN FOLDBELT - MESOZOIC / CHINA - MESOZOIC / INNER MONGOLIA;ZHALANTUN;48.0033;122.7719;48.0033;122.7719;;;OUTCROP;;;SUBAERIAL;VOLCANIC ROCK;TRACHYDACITE;;;;;CRETACEOUS;LOWER;;;;WHOLE ROCK;;;;;;;;;;;;;66.25;0.55;;;14.68;;;;;;;;;5.06;;;;2.8;1.24;0.12;;;;;;;3.9;NOT;;;3.96;0.2;;;;;;;;;;;;;;0.93;;;;;;;;;;;;;;;;;;;;;;;;;;;;;;;;;;;;;;;;;;;;;;79.91;NOT;;;364.87;NOT;;;;;;;74.02;NOT;;;5.71;NOT;;;;;;;;;;;;;;866.74;NOT;;;24.66;NOT;;;52.67;NOT;;;6.18;23.73;NOT;;;5.02;NOT;;;1.15;4.34;0.58;3.6;0.66;2.17;0.27;1.97;0.3;2.71;0.2;;;;;;;;;;;;;;7.71;NOT;;;;;;;;;;;;;;;;;;;;;;;;;;;;;;;;;;;;;;;;;;;;;;;;;;;;;;;;;;;;;;;;;;;;;;;;;;;;;;;;;;;
2006;[12067] ZHANG JI-HENG (2006);samp. GW04002;;CENTRAL ASIAN FOLDBELT - MESOZOIC / CHINA - MESOZOIC / INNER MONGOLIA;ZHALANTUN;48.0033;122.7719;48.0033;122.7719;;;OUTCROP;;;SUBAERIAL;VOLCANIC ROCK;TRACHYDACITE;;;;;CRETACEOUS;LOWER;;;;WHOLE ROCK;;;;;;;;;;;;;69.84;0.37;;;15.6;;;;;;;;;2.82;;;;2.13;0.69;0.09;;;;;;;3.73;NOT;;;4.39;0.12;;;;;;;;;;;;;;0.52;;;;;;;;;;;;;;;;;;;;;;;;;;;;;;;;;;;;;;;;;;;;;;89.13;NOT;;;384;NOT;;;;;;;235.1;NOT;;;8.19;NOT;;;;;;;;;;;;;;1049.9;NOT;;;30.67;NOT;;;61.07;NOT;;;7.59;26.53;NOT;;;4.67;NOT;;;0.86;3.31;0.59;3.4;0.7;2.06;0.35;2.24;0.36;5.58;0.6;;;;;;;;;;;;;;8.24;NOT;;;;;;;;;;;;;;;;;;;;;;;;;;;;;;;;;;;;;;;;;;;;;;;;;;;;;;;;;;;;;;;;;;;;;;;;;;;;;;;;;;;