Year;CITATION;SAMPLE NAME;UNIQUE_ID;LOCATION;LOCATION COMMENT;LATITUDE (MIN.);LONGITUDE (MIN.);LATITUDE (MAX.);LONGITUDE (MAX.);ELEVATION (MIN.);ELEVATION (MAX.);SAMPLING TECHNIQUE;DRILLING DEPTH (MIN.);DRILLING DEPTH (MAX.);LAND/SEA (SAMPLING);ROCK TYPE;ROCK NAME;ROCK TEXTURE;SAMPLE COMMENT;AGE (MIN.);AGE (MAX.);GEOLOGICAL AGE;GEOLOGICAL AGE PREFIX;ERUPTION YEAR;ALTERATION;ALTERATION TYPE;TYPE OF MATERIAL;MINERAL / COMPONENT;SPOT (MINERAL);CRYSTAL;RIM / CORE (MINERAL GRAINS);PRIMARY/SECONDARY;INCLUSION TYPE;SPOT (INCLUSION);MINERAL (INCLUSION);RIM / CORE (INCLUSION);HOSTMINERAL (INCLUSION);HEATING;HEATING TEMPERATURE (?C);SIO2(WT%);TIO2(WT%);ZRO2(WT%);B2O3(WT%);AL2O3(WT%);CR2O3(WT%);LA2O3(WT%);CE2O3(WT%);Y2O3(WT%);V2O3(WT%);NB2O3(WT%);TA2O5(WT%);WO3(WT%);FE2O3T(WT%);FE2O3(WT%);FEOT(WT%);FEO(WT%);CAO(WT%);MGO(WT%);MNO(WT%);BAO(WT%);SRO(WT%);NIO(WT%);ZNO(WT%);CS2O(WT%);RB2O(WT%);K2O(WT%);;;;NA2O(WT%);P2O5(WT%);H2O(WT%);;;;H2OP(WT%);H2OM(WT%);CO2(WT%);C(WT%);F(WT%);CL(WT%);SO2(WT%);SO3(WT%);S(WT%);LOI(WT%);AL(WT%);TI(WT%);FE(WT%);MG(WT%);CA(WT%);K(WT%);NA(WT%);LI(PPM);BE(PPM);B(PPM);C(PPM);F(PPM);NA(PPM);MG(PPM);AL(PPM);P(PPM);S(PPM);CL(PPM);AR40(AT/G);AR40(CCMSTP/G);AR40(MOL/G);AR40(PPB);K(PPM);CA(PPM);SC(PPM);;;;TI(PPM);;;;V(PPM);CR(PPM);MN(PPM);FE(PPM);CO(PPM);NI(PPM);CU(PPM);ZN(PPM);GA(PPM);GE(PPM);AS(PPM);SE(PPM);BR(PPM);RB(PPM): altern. values or methods;;;;SR(PPM): altern. values or methods;;;;Y(PPM): altern. values or methods;;;;ZR(PPM): altern. values or methods;;;;NB(PPM): altern. values or methods;;;;MO(PPM): altern. values or methods;;;;AG(PPM);CD(PPM);IN(PPM);SN(PPM);SB(PPM);TE(PPM);CS(PPM);BA(PPM): altern. values or methods;;;;LA(PPM): altern. values or methods;;;;CE(PPM): altern. values or methods;;;;PR(PPM);ND(PPM): altern. values or methods;;;;SM(PPM): altern. values or methods;;;;EU(PPM);GD(PPM);TB(PPM);DY(PPM);HO(PPM);ER(PPM);TM(PPM);YB(PPM);LU(PPM);HF(PPM);TA(PPM);W(PPM);RE(PPM);AU(PPM);AU(PPB);HG(PPM);HG(PPB);TL(PPM);PB(PPM): altern. values or methods;;;;PB206(PPM);BI(PPM);TH(PPM): altern. values or methods;;;;U(PPM);ND143_ND144;ND143_ND144_INI;EPSILON_ND;EPSILON_ND_INI;SM147_ND144;SR87_SR86;SR87_SR86_INI;EPSILON_SR;EPSILON_SR_INI;RB87_SR86;PB206_PB204;PB206_PB204_INI;PB206_PB207;PB206_PB208;PB207_PB204;PB207_PB204_INI;PB207_PB206;PB208_PB204;PB208_PB204_INI;PB208_PB206;HF176_HF177;HF176_HF177_INI;EPSILON_HF_INI;LU176_HF177;YB176_HF177;AR36_AR39;AR36_AR40;AR37_AR39;AR38_AR39;AR39_AR40;AR40_AR36;AR40_AR39;PB206_U238;PB207_U235;PB208_TH232;TH232_PB204;TH232_U238;U235_PB204;U238_PB204;U238_PB206;D7LI(VS LSVEC);D18O(PER MIL);D18O(VS SMOW);D18O(VS VSMOW);D56FE(VS IRMM-014);D57FE(VS IRMM-014);DD(VS SMOW);ALBITE(MOL%);ANORTHITE(MOL%);CA OLIVINE(MOL%);ENSTATITE(MOL%);FAYALITE(MOL%);FORSTERITE(MOL%);FERROSILITE(MOL%);ORTHOCLASE(MOL%);TEPHROITE(MOL%);ULVOSPINEL(MOL%);WOLLASTONITE(MOL%);AGE(KA): altern. values or methods;;;;AGE(MA): altern. values or methods;;;;;;;;AGE_PB207_PB206(MA);AGE_PB207_U235(MA);AGE_PB206_U238(MA): altern. values or methods;;;;;;AGE_PB208_TH232(MA);
2006;[13304] KESKIN M. (2006);samp. MK174;199865;ANATOLIA-IRAN BELT / TURKEY / EASTERN ANATOLIAN VOLCANIC BELT / ALADAG / PASLI FORMATION;NORTH OF KAGIZMAN, ERZURUM-KARS PLATEAU;40.1581;43.1353;40.1581;43.1353;;;OUTCROP;;;SUBAERIAL;VOLCANIC ROCK;TRACHYDACITE;;;1500000;11000000;NEOGENE-QUATERNARY;;;FRESH;;WHOLE ROCK;;;;;;;;;;;;;;;;;;;;;;;;;;;;;;;;;;;;;;;;;;;;;;;;;;;;;;;;;;;;;;;;;;;;;;;;;;;;;;;;;;;;;;;;;;;;;;;;;;;;;;;;;;;;;;;;;;;;;;;;;;;;;;;;;;;;;;;;;;;;;;;;;;;;;;;;;;;;;;;;;;;;;;;;;;;;;;;;;;;;;;;;;0.512878;;;;;0.704367;;;;;19.03;;;;15.617;;;38.985;;;;;;;;;;;;;;;;;;;;;;;;7.3;;;;;;;;;;;;;;;;;;;;;;;;;;;;;;;;;;;;;;
2006;[13304] KESKIN M. (2006);samp. MK106;199774;ANATOLIA-IRAN BELT / TURKEY / EASTERN ANATOLIAN VOLCANIC BELT / BLACK IGNIMBRITE FORMATION;PASINLER AREA, ERZURUM-KARS PLATEAU;39.9822;41.6831;39.9822;41.6831;;;OUTCROP;;;SUBAERIAL;VOLCANIC ROCK;TRACHYDACITE;;;1500000;11000000;NEOGENE-QUATERNARY;;;FRESH;;MINERAL / COMPONENT (INCL. GROUNDMASS);AMPHIBOLE;;;;PRIMARY;;;;;;;;45.15;3.7;;;10.47;0.01;;;;;;;;;;10.66;;11.04;15.08;0.29;;;0;;;;0.86;EMP (EPMA);;;2.96;;;;;;;;;;;;;;;;;;;;;;;;;;;;;;;;;;;;;;;;;;;;;;;;;;;;;;;;;;;;;;;;;;;;;;;;;;;;;;;;;;;;;;;;;;;;;;;;;;;;;;;;;;;;;;;;;;;;;;;;;;;;;;;;;;;;;;;;;;;;;;;;;;;;;;;;;;;;;;;;;;;;;;;;;;;;;;;;;;;;;;;;;;;;;;;;;;;;;;;;;;;;;;;;;;;;;;;;;;;;;
2006;[13304] KESKIN M. (2006);samp. MK106;199774;ANATOLIA-IRAN BELT / TURKEY / EASTERN ANATOLIAN VOLCANIC BELT / BLACK IGNIMBRITE FORMATION;PASINLER AREA, ERZURUM-KARS PLATEAU;39.9822;41.6831;39.9822;41.6831;;;OUTCROP;;;SUBAERIAL;VOLCANIC ROCK;TRACHYDACITE;;;1500000;11000000;NEOGENE-QUATERNARY;;;FRESH;;MINERAL / COMPONENT (INCL. GROUNDMASS);AMPHIBOLE;;;;PRIMARY;;;;;;;;43.34;4.01;;;11.18;0.09;;;;;;;;;;11.18;;11.53;13.96;0.32;;;0;;;;0.87;EMP (EPMA);;;2.81;;;;;;;;;;;;;;;;;;;;;;;;;;;;;;;;;;;;;;;;;;;;;;;;;;;;;;;;;;;;;;;;;;;;;;;;;;;;;;;;;;;;;;;;;;;;;;;;;;;;;;;;;;;;;;;;;;;;;;;;;;;;;;;;;;;;;;;;;;;;;;;;;;;;;;;;;;;;;;;;;;;;;;;;;;;;;;;;;;;;;;;;;;;;;;;;;;;;;;;;;;;;;;;;;;;;;;;;;;;;;
2006;[13304] KESKIN M. (2006);samp. MK106;199774;ANATOLIA-IRAN BELT / TURKEY / EASTERN ANATOLIAN VOLCANIC BELT / BLACK IGNIMBRITE FORMATION;PASINLER AREA, ERZURUM-KARS PLATEAU;39.9822;41.6831;39.9822;41.6831;;;OUTCROP;;;SUBAERIAL;VOLCANIC ROCK;TRACHYDACITE;;;1500000;11000000;NEOGENE-QUATERNARY;;;FRESH;;MINERAL / COMPONENT (INCL. GROUNDMASS);AMPHIBOLE;;;;PRIMARY;;;;;;;;43.85;4.21;;;11.32;0.09;;;;;;;;;;11.15;;11.33;14.38;0.24;;;0.07;;;;0.79;EMP (EPMA);;;2.91;;;;;;;;;;;;;;;;;;;;;;;;;;;;;;;;;;;;;;;;;;;;;;;;;;;;;;;;;;;;;;;;;;;;;;;;;;;;;;;;;;;;;;;;;;;;;;;;;;;;;;;;;;;;;;;;;;;;;;;;;;;;;;;;;;;;;;;;;;;;;;;;;;;;;;;;;;;;;;;;;;;;;;;;;;;;;;;;;;;;;;;;;;;;;;;;;;;;;;;;;;;;;;;;;;;;;;;;;;;;;
2006;[13304] KESKIN M. (2006);samp. MK318;199778;ANATOLIA-IRAN BELT / TURKEY / EASTERN ANATOLIAN VOLCANIC BELT / BLACK IGNIMBRITE FORMATION;PASINLER AREA, ERZURUM-KARS PLATEAU;39.9822;41.6831;39.9822;41.6831;;;OUTCROP;;;SUBAERIAL;VOLCANIC ROCK;TRACHYDACITE;;;1500000;11000000;NEOGENE-QUATERNARY;;;FRESH;;MINERAL / COMPONENT (INCL. GROUNDMASS);AMPHIBOLE;;;;PRIMARY;;;;;;;;43.71;3.95;;;9.73;0;;;;;;;;;;11.95;;11.29;14.29;0.4;;;0.2;;;;0.86;EMP (EPMA);;;2.67;;;;;;;;;;;;;;;;;;;;;;;;;;;;;;;;;;;;;;;;;;;;;;;;;;;;;;;;;;;;;;;;;;;;;;;;;;;;;;;;;;;;;;;;;;;;;;;;;;;;;;;;;;;;;;;;;;;;;;;;;;;;;;;;;;;;;;;;;;;;;;;;;;;;;;;;;;;;;;;;;;;;;;;;;;;;;;;;;;;;;;;;;;;;;;;;;;;;;;;;;;;;;;;;;;;;;;;;;;;;;
2006;[13304] KESKIN M. (2006);samp. MK318;199778;ANATOLIA-IRAN BELT / TURKEY / EASTERN ANATOLIAN VOLCANIC BELT / BLACK IGNIMBRITE FORMATION;PASINLER AREA, ERZURUM-KARS PLATEAU;39.9822;41.6831;39.9822;41.6831;;;OUTCROP;;;SUBAERIAL;VOLCANIC ROCK;TRACHYDACITE;;;1500000;11000000;NEOGENE-QUATERNARY;;;FRESH;;MINERAL / COMPONENT (INCL. GROUNDMASS);AMPHIBOLE;;;;PRIMARY;;;;;;;;43.68;3.96;;;10.28;0.08;;;;;;;;;;12.27;;11.38;14.43;0.28;;;0.05;;;;0.87;EMP (EPMA);;;2.75;;;;;;;;;;;;;;;;;;;;;;;;;;;;;;;;;;;;;;;;;;;;;;;;;;;;;;;;;;;;;;;;;;;;;;;;;;;;;;;;;;;;;;;;;;;;;;;;;;;;;;;;;;;;;;;;;;;;;;;;;;;;;;;;;;;;;;;;;;;;;;;;;;;;;;;;;;;;;;;;;;;;;;;;;;;;;;;;;;;;;;;;;;;;;;;;;;;;;;;;;;;;;;;;;;;;;;;;;;;;;
2006;[13304] KESKIN M. (2006);samp. MK318;199778;ANATOLIA-IRAN BELT / TURKEY / EASTERN ANATOLIAN VOLCANIC BELT / BLACK IGNIMBRITE FORMATION;PASINLER AREA, ERZURUM-KARS PLATEAU;39.9822;41.6831;39.9822;41.6831;;;OUTCROP;;;SUBAERIAL;VOLCANIC ROCK;TRACHYDACITE;;;1500000;11000000;NEOGENE-QUATERNARY;;;FRESH;;MINERAL / COMPONENT (INCL. GROUNDMASS);AMPHIBOLE;;;;PRIMARY;;;;;;;;45.94;3.01;;;9;0;;;;;;;;;;12.24;;11.35;15.09;0.36;;;0;;;;0.89;EMP (EPMA);;;2.88;;;;;;;;;;;;;;;;;;;;;;;;;;;;;;;;;;;;;;;;;;;;;;;;;;;;;;;;;;;;;;;;;;;;;;;;;;;;;;;;;;;;;;;;;;;;;;;;;;;;;;;;;;;;;;;;;;;;;;;;;;;;;;;;;;;;;;;;;;;;;;;;;;;;;;;;;;;;;;;;;;;;;;;;;;;;;;;;;;;;;;;;;;;;;;;;;;;;;;;;;;;;;;;;;;;;;;;;;;;;;
2006;[13304] KESKIN M. (2006);samp. MK318;199778;ANATOLIA-IRAN BELT / TURKEY / EASTERN ANATOLIAN VOLCANIC BELT / BLACK IGNIMBRITE FORMATION;PASINLER AREA, ERZURUM-KARS PLATEAU;39.9822;41.6831;39.9822;41.6831;;;OUTCROP;;;SUBAERIAL;VOLCANIC ROCK;TRACHYDACITE;;;1500000;11000000;NEOGENE-QUATERNARY;;;FRESH;;MINERAL / COMPONENT (INCL. GROUNDMASS);AMPHIBOLE;;;;PRIMARY;;;;;;;;44.33;3.65;;;10.04;0.2;;;;;;;;;;11.49;;11.47;14.75;0.29;;;0.05;;;;0.66;EMP (EPMA);;;2.61;;;;;;;;;;;;;;;;;;;;;;;;;;;;;;;;;;;;;;;;;;;;;;;;;;;;;;;;;;;;;;;;;;;;;;;;;;;;;;;;;;;;;;;;;;;;;;;;;;;;;;;;;;;;;;;;;;;;;;;;;;;;;;;;;;;;;;;;;;;;;;;;;;;;;;;;;;;;;;;;;;;;;;;;;;;;;;;;;;;;;;;;;;;;;;;;;;;;;;;;;;;;;;;;;;;;;;;;;;;;;
2006;[13304] KESKIN M. (2006);samp. MK174;199865;ANATOLIA-IRAN BELT / TURKEY / EASTERN ANATOLIAN VOLCANIC BELT / ALADAG / PASLI FORMATION;NORTH OF KAGIZMAN, ERZURUM-KARS PLATEAU;40.1581;43.1353;40.1581;43.1353;;;OUTCROP;;;SUBAERIAL;VOLCANIC ROCK;TRACHYDACITE;;;1500000;11000000;NEOGENE-QUATERNARY;;;FRESH;;MINERAL / COMPONENT (INCL. GROUNDMASS);AMPHIBOLE;;;;PRIMARY;;;;;;;;41.36;3.65;;;12.44;0;;;;;;;;;;17.76;;10.7;10.92;0.31;;;0.03;;;;0.65;EMP (EPMA);;;2.85;;;;;;;;;;;;;;;;;;;;;;;;;;;;;;;;;;;;;;;;;;;;;;;;;;;;;;;;;;;;;;;;;;;;;;;;;;;;;;;;;;;;;;;;;;;;;;;;;;;;;;;;;;;;;;;;;;;;;;;;;;;;;;;;;;;;;;;;;;;;;;;;;;;;;;;;;;;;;;;;;;;;;;;;;;;;;;;;;;;;;;;;;;;;;;;;;;;;;;;;;;;;;;;;;;;;;;;;;;;;;
2006;[13304] KESKIN M. (2006);samp. MK174;199865;ANATOLIA-IRAN BELT / TURKEY / EASTERN ANATOLIAN VOLCANIC BELT / ALADAG / PASLI FORMATION;NORTH OF KAGIZMAN, ERZURUM-KARS PLATEAU;40.1581;43.1353;40.1581;43.1353;;;OUTCROP;;;SUBAERIAL;VOLCANIC ROCK;TRACHYDACITE;;;1500000;11000000;NEOGENE-QUATERNARY;;;FRESH;;MINERAL / COMPONENT (INCL. GROUNDMASS);AMPHIBOLE;;;;PRIMARY;;;;;;;;41.86;3.31;;;11.76;0;;;;;;;;;;16.94;;10.54;11.07;0.58;;;0;;;;0.63;EMP (EPMA);;;2.59;;;;;;;;;;;;;;;;;;;;;;;;;;;;;;;;;;;;;;;;;;;;;;;;;;;;;;;;;;;;;;;;;;;;;;;;;;;;;;;;;;;;;;;;;;;;;;;;;;;;;;;;;;;;;;;;;;;;;;;;;;;;;;;;;;;;;;;;;;;;;;;;;;;;;;;;;;;;;;;;;;;;;;;;;;;;;;;;;;;;;;;;;;;;;;;;;;;;;;;;;;;;;;;;;;;;;;;;;;;;;
2006;[13304] KESKIN M. (2006);samp. MK174;199865;ANATOLIA-IRAN BELT / TURKEY / EASTERN ANATOLIAN VOLCANIC BELT / ALADAG / PASLI FORMATION;NORTH OF KAGIZMAN, ERZURUM-KARS PLATEAU;40.1581;43.1353;40.1581;43.1353;;;OUTCROP;;;SUBAERIAL;VOLCANIC ROCK;TRACHYDACITE;;;1500000;11000000;NEOGENE-QUATERNARY;;;FRESH;;MINERAL / COMPONENT (INCL. GROUNDMASS);AMPHIBOLE;;;;PRIMARY;;;;;;;;42.16;3.44;;;11.25;0;;;;;;;;;;16.8;;10.95;11.8;0.47;;;0;;;;0.57;EMP (EPMA);;;2.72;;;;;;;;;;;;;;;;;;;;;;;;;;;;;;;;;;;;;;;;;;;;;;;;;;;;;;;;;;;;;;;;;;;;;;;;;;;;;;;;;;;;;;;;;;;;;;;;;;;;;;;;;;;;;;;;;;;;;;;;;;;;;;;;;;;;;;;;;;;;;;;;;;;;;;;;;;;;;;;;;;;;;;;;;;;;;;;;;;;;;;;;;;;;;;;;;;;;;;;;;;;;;;;;;;;;;;;;;;;;;
2006;[13304] KESKIN M. (2006);samp. MK174;199865;ANATOLIA-IRAN BELT / TURKEY / EASTERN ANATOLIAN VOLCANIC BELT / ALADAG / PASLI FORMATION;NORTH OF KAGIZMAN, ERZURUM-KARS PLATEAU;40.1581;43.1353;40.1581;43.1353;;;OUTCROP;;;SUBAERIAL;VOLCANIC ROCK;TRACHYDACITE;;;1500000;11000000;NEOGENE-QUATERNARY;;;FRESH;;MINERAL / COMPONENT (INCL. GROUNDMASS);AMPHIBOLE;;;;PRIMARY;;;;;;;;40.48;2.97;;;10.83;0.04;;;;;;;;;;16.21;;12.74;11.21;0.45;;;0;;;;0.61;EMP (EPMA);;;2.39;;;;;;;;;;;;;;;;;;;;;;;;;;;;;;;;;;;;;;;;;;;;;;;;;;;;;;;;;;;;;;;;;;;;;;;;;;;;;;;;;;;;;;;;;;;;;;;;;;;;;;;;;;;;;;;;;;;;;;;;;;;;;;;;;;;;;;;;;;;;;;;;;;;;;;;;;;;;;;;;;;;;;;;;;;;;;;;;;;;;;;;;;;;;;;;;;;;;;;;;;;;;;;;;;;;;;;;;;;;;;
2009;[13756] AGUILLON-ROBLES A. (2009);samp. MT2-12;;MEXICAN BASIN AND RANGE / EASTERN MEXICAN BASIN AND RANGE / SAN LUIS POTOSI / OJUELOS VOLCANIC COMPLEX;SE SIERRA MADRE OCCIDENTAL, MESA CENTRAL, OJUELOS DOME COMPLEX;21.85;-101.6;21.85;-101.6;;;OUTCROP;;;SUBAERIAL;VOLCANIC ROCK;TRACHYDACITE;;;;;;;;;;WHOLE ROCK;;;;;;;;;;;;;64.08;0.5;;;14.23;;;;;;;;;7.61;;;;1.29;0.43;0.23;;;;;;;5.52;XRF;;;2.98;0.14;;;;;;;;;;;;;;2.31;;;;;;;;;;;;;;;;;;;;;;;;;;;;;;;;;;;;;;;;;;;;;;148;XRF;;;155;XRF;;;;;;;618;XRF;;;18;XRF;;;;;;;;;;;;;;2665;XRF;;;;;;;;;;;;;;;;;;;;;;;;;;;;;;;;;;;;;;;;;;;;12;XRF;;;;;;;;;;;;;;;;;;;;;;;;;;;;;;;;;;;;;;;;;;;;;;;;;;;;;;;;;;;;;;;;;;;;;;;;;;;;;;;;;;;
2009;[13756] AGUILLON-ROBLES A. (2009);samp. SLP02-07;;MEXICAN BASIN AND RANGE / EASTERN MEXICAN BASIN AND RANGE / SAN LUIS POTOSI / OJUELOS VOLCANIC COMPLEX;SE SIERRA MADRE OCCIDENTAL, MESA CENTRAL, OJUELOS DOME COMPLEX;21.85;-101.6;21.85;-101.6;;;OUTCROP;;;SUBAERIAL;VOLCANIC ROCK;TRACHYDACITE;;;;;;;;;;WHOLE ROCK;;;;;;;;;;;;;66.2;0.51;;;13.8;;;;;;;;;7.15;;;;0.96;0.16;0.06;;;;;;;5.5;XRF;;;2.97;0.1;;;;;;;;;;;;;;1.9;;;;;;;;;;;;;;;;;;;;;;;;;;;;;;;;;;;;;;;;;;;;;;168;XRF;;;130;XRF;;;;;;;955;XRF;;;27.5;XRF;;;;;;;;;;;;;;2425;XRF;;;230;ICPMS;;;167;ICPMS;;;;200;ICPMS;;;34.5;ICPMS;;;4.6;32;;23;;11;;9.18;;;;;;;;;;;;;;;;;13;XRF;;;;;;;;;;;;;;;;;;;;;;;;;;;;;;;;;;;;;;;;;;;;;;;;;;;;;;;;;;;;;;;;;;;;;;;;;;;;;;;;;;;
2009;[13756] AGUILLON-ROBLES A. (2009);samp. D5;;MEXICAN BASIN AND RANGE / EASTERN MEXICAN BASIN AND RANGE / SAN LUIS POTOSI / SANTA INES VOLCANIC COMPLEX;SE SIERRA MADRE OCCIDENTAL, MESA CENTRAL, SANTA INES DOME COMPLEX;21.35;-102.1;21.35;-102.1;;;OUTCROP;;;SUBAERIAL;VOLCANIC ROCK;TRACHYDACITE;;;;;;;;;;WHOLE ROCK;;;;;;;;;;;;;67.722;0.275;;;16.012;;;;;;;;;3.732;;;;2.241;0.379;0.04;;;;;;;4.464;XRF;;;3.604;0.127;;;;;;;;;;;;;;0.95;;;;;;;;;;;;;;;;;;;;;;;;;;;;;;;;;;;;;;;;;;;;;;150;XRF;;;184;XRF;;;;;;;302;XRF;;;15;XRF;;;;;;;;;;;;;;1026;XRF;;;;;;;;;;;;;;;;;;;;;;;;;;;;;;;;;;;;;;;;;;;;15;XRF;;;;;;;;;;;;;;;;;;;;;;;;;;;;;;;;;;;;;;;;;;;;;;;;;;;;;;;;;;;;;;;;;;;;;;;;;;;;;;;;;;;
2009;[13759] GEORGIEV S. V.(2009)  [GeoReM [4995] ];samp. SG4;;CARPATHIAN BELT AND PANNONIAN BASIN / SOUTHERN PANNONIAN-EASTERN CARPATHIAN (TISZA-DACIA / SREDNOGORIE ARC;JAMBOL, YAMBOL-BURGAS DEPRESSION;42.48;26.5;42.48;26.5;;;OUTCROP;;;SUBAERIAL;VOLCANIC ROCK;TRACHYDACITE;;;;;;;;;;WHOLE ROCK;;;;;;;;;;;;;66.5983711519746;0.286841161706705;;;15.3767351329201;;;;;;;;;;;2.68913589100036;;2.61230343697178;1.62884802540593;0.0614659632228653;;;;;;;8.39010397992112;XRF;;;2.22301900322696;0.133176253649542;;;;;;;;;;;;0;;2.23;;;;;;;;;;;;;;;;;;;;;;;;;;;;;;;;;76.2428695508206;24.4066405741269;;;5.39466619967239;;;;;;;;;303.970302011114;XRF;;;145.827361089442;XRF;;;17.0513380148428;XRF;;;106.394961336402;XRF;;;9.53736210406681;XRF;;;;;;;;;;;;;;426.458230061231;XRF;;;23.8166185819619;XRF;;;51.2929600030923;XRF;;;;22.5255426431039;XRF;;;;;;;;;;;;;;;;;;;;;;;;;;;;;;;;;;;13.2687826716871;;;;;;;;;;;;;;;;;;;;;;;;;;;;;;;;;;;;;;;;;;;;;;;;;;;;;;;;;;;;;;;;;;;;;;;;;;;;;;;;
1996;[13884] FERRARI L. (1996);samp. AMT 04;;APENNINIC-MAGHREBIDES CHAIN / APENNINE / TUSCAN VOLCANIC PROVINCE / MONTE AMIATA / BASAL TRACHYDACITIC COMPLEX;LECCIO;42.9031;11.5539;42.9031;11.5539;;;OUTCROP;;;SUBAERIAL;VOLCANIC ROCK;TRACHYDACITE;;;300000;300000;PLEISTOCENE;;;;;WHOLE ROCK;;;;;;;;;;;;;66;0.56;;;15.9;;;;;;;;;;0.77;;2.68;3.08;1.28;0.06;;;;;;;6.11;XRF;;;2.18;0.16;;;;;;;;;;;;;;1.25;;;;;;;;;;;;;;;;;;;;;;;;;;;;;;;;;;;;;;;;;;;;;;;;;;;;;;;;;;;;;;;;;;;;;;;;;;;;;;;;;;;;;;;;;;;;;;;;;;;;;;;;;;;;;;;;;;;;;;;;;;;;;;;;;;;;;;;;;;;;;;;;;;;;;;;;;;;;;;;;;;;;;;;;;;;;;;;;;;;;;;;;;;;;;;;;;;;;;;;;;;;;;;
1996;[13884] FERRARI L. (1996);samp. AMT 03;;APENNINIC-MAGHREBIDES CHAIN / APENNINE / TUSCAN VOLCANIC PROVINCE / MONTE AMIATA / BASAL TRACHYDACITIC COMPLEX;LECCIO;42.9097;11.5575;42.9097;11.5575;;;OUTCROP;;;SUBAERIAL;VOLCANIC ROCK;TRACHYDACITE;;;300000;300000;PLEISTOCENE;;;;;WHOLE ROCK;;;;;;;;;;;;;66.1;0.62;;;15.8;;;;;;;;;;0.49;;2.76;3.2;1.27;0.06;;;;;;;6.09;XRF;;;2.23;0.18;;;;;;;;;;;;;;1.14;;;;;;;;;;;;;;;;;;;;;;;;;;;;;;;;;;;;;;;;;;;;;;;;;;;;;;;;;;;;;;;;;;;;;;;;;;;;;;;;;;;;;;;;;;;;;;;;;;;;;;;;;;;;;;;;;;;;;;;;;;;;;;;;;;;;;;;;;;;;;;;;;;;;;;;;;;;;;;;;;;;;;;;;;;;;;;;;;;;;;;;;;;;;;;;;;;;;;;;;;;;;;;
1996;[13884] FERRARI L. (1996);samp. AMT 01;;APENNINIC-MAGHREBIDES CHAIN / APENNINE / TUSCAN VOLCANIC PROVINCE / MONTE AMIATA / BASAL TRACHYDACITIC COMPLEX;LECCIO;42.9097;11.5575;42.9097;11.5575;;;OUTCROP;;;SUBAERIAL;VOLCANIC ROCK;TRACHYDACITE;;;300000;300000;PLEISTOCENE;;;;;WHOLE ROCK;;;;;;;;;;;;;66.9;0.58;;;15.5;;;;;;;;;;0.5;;2.56;3;1.19;0.05;;;;;;;6.24;XRF;;;2.25;0.16;;;;;;;;;;;;;;1.05;;;;;;;;;;;;;;;;;;;;;;;;;;;;;;;;;;;;;;;;;;;;;;;;;;;;;;;;;;;;;;;;;;;;;;;;;;;;;;;;;;;;;;;;;;;;;;;;;;;;;;;;;;;;;;;;;;;;;;;;;;;;;;;;;;;;;;;;;;;;;;;;;;;;;;;;;;;;;;;;;;;;;;;;;;;;;;;;;;;;;;;;;;;;;;;;;;;;;;;;;;;;;;
1996;[13884] FERRARI L. (1996);samp. AMT 06;;APENNINIC-MAGHREBIDES CHAIN / APENNINE / TUSCAN VOLCANIC PROVINCE / MONTE AMIATA / BASAL TRACHYDACITIC COMPLEX;CAS. PIANO;42.8939;11.5503;42.8939;11.5503;;;OUTCROP;;;SUBAERIAL;VOLCANIC ROCK;TRACHYDACITE;;;300000;300000;PLEISTOCENE;;;;;WHOLE ROCK;;;;;;;;;;;;;65.8;0.59;;;16.4;;;;;;;;;;0.61;;2.72;2.96;1.19;0.06;;;;;;;6.06;XRF;;;2.2;;;;;;;;;;;;;;;1.26;;;;;;;;;;;;;;;;;;;;;;;;;;;;;;;;;;;;;;;;;;;;;;;;;;;;;;;;;;;;;;;;;;;;;;;;;;;;;;;;;;;;;;;;;;;;;;;;;;;;;;;;;;;;;;;;;;;;;;;;;;;;;;;;;;;;;;;;;;;;;;;;;;;;;;;;;;;;;;;;;;;;;;;;;;;;;;;;;;;;;;;;;;;;;;;;;;;;;;;;;;;;;;
1996;[13884] FERRARI L. (1996);samp. AMT 10;180395;APENNINIC-MAGHREBIDES CHAIN / APENNINE / TUSCAN VOLCANIC PROVINCE / MONTE AMIATA / BASAL TRACHYDACITIC COMPLEX;LECCIO, CAS. PIANO;42.8939;11.5503;42.8939;11.5503;;;OUTCROP;;;SUBAERIAL;VOLCANIC ROCK;TRACHYDACITE;;;300000;300000;PLEISTOCENE;;;;;WHOLE ROCK;;;;;;;;;;;;;66.4;0.53;;;15.7;;;;;;;;;;0.72;;2.52;2.99;1.32;0.06;;;;;;;5.91;XRF;;;2.37;0.16;;;;;;;;;;;;;;1.25;;;;;;;;;;;;;;;;;;;;;;;;;;;;;;;;;;;;;;;;;;;;;;;;;;;;;;;;;;;;;;;;;;;;;;;;;;;;;;;;;;;;;;;;;;;;;;;;;;;;;;;;;;;;;;;;;;;;;;;;;;;;;;;;;;;;;;;;;;;;;;;;;;;;;;;;;;;;;;;;;;;;;;;;;;;;;;;;;;;;;;;;;;;;;;;;;;;;;;;;;;;;;;
1996;[13884] FERRARI L. (1996);samp. AMT 53;;APENNINIC-MAGHREBIDES CHAIN / APENNINE / TUSCAN VOLCANIC PROVINCE / MONTE AMIATA / BASAL TRACHYDACITIC COMPLEX;S. FLORA;42.8378;11.5983;42.8378;11.5983;;;OUTCROP;;;SUBAERIAL;VOLCANIC ROCK;TRACHYDACITE;;;300000;300000;PLEISTOCENE;;;;;WHOLE ROCK;;;;;;;;;;;;;65.6;0.54;;;16.3;;;;;;;;;;0.63;;2.32;2.68;1.24;0.05;;;;;;;6.03;XRF;;;2.09;0.17;;;;;;;;;;;;;;2.36;;;;;;;;;;;;;;;;;;;;;;;;;;;;;;;;;;;;;;;;;;;;;;;;;;;;;;;;;;;;;;;;;;;;;;;;;;;;;;;;;;;;;;;;;;;;;;;;;;;;;;;;;;;;;;;;;;;;;;;;;;;;;;;;;;;;;;;;;;;;;;;;;;;;;;;;;;;;;;;;;;;;;;;;;;;;;;;;;;;;;;;;;;;;;;;;;;;;;;;;;;;;;;
1996;[13884] FERRARI L. (1996);samp. AMT 51;;APENNINIC-MAGHREBIDES CHAIN / APENNINE / TUSCAN VOLCANIC PROVINCE / MONTE AMIATA / BASAL TRACHYDACITIC COMPLEX;S. FLORA;42.8339;11.5844;42.8339;11.5844;;;OUTCROP;;;SUBAERIAL;VOLCANIC ROCK;TRACHYDACITE;;;300000;300000;PLEISTOCENE;;;;;WHOLE ROCK;;;;;;;;;;;;;65.7;0.54;;;16.1;;;;;;;;;;0.43;;2.76;2.98;1.33;0.05;;;;;;;5.95;XRF;;;2.13;0.16;;;;;;;;;;;;;;1.91;;;;;;;;;;;;;;;;;;;;;;;;;;;;;;;;;;;;;;;;;;;;;;;;;;;;;;;;;;;;;;;;;;;;;;;;;;;;;;;;;;;;;;;;;;;;;;;;;;;;;;;;;;;;;;;;;;;;;;;;;;;;;;;;;;;;;;;;;;;;;;;;;;;;;;;;;;;;;;;;;;;;;;;;;;;;;;;;;;;;;;;;;;;;;;;;;;;;;;;;;;;;;;
1996;[13884] FERRARI L. (1996);samp. AMT 52;;APENNINIC-MAGHREBIDES CHAIN / APENNINE / TUSCAN VOLCANIC PROVINCE / MONTE AMIATA / BASAL TRACHYDACITIC COMPLEX;S. FLORA;42.8378;11.5983;42.8378;11.5983;;;OUTCROP;;;SUBAERIAL;VOLCANIC ROCK;TRACHYDACITE;;;300000;300000;PLEISTOCENE;;;;;WHOLE ROCK;;;;;;;;;;;;;67.1;0.5;;;15.9;;;;;;;;;;0.23;;2.72;2.79;1.19;0.05;;;;;;;6.15;XRF;;;2.17;0.15;;;;;;;;;;;;;;1.07;;;;;;;;;;;;;;;;;;;;;;;;;;;;;;;;;;;;;;;;;;;;;;;;;;;;;;;;;;;;;;;;;;;;;;;;;;;;;;;;;;;;;;;;;;;;;;;;;;;;;;;;;;;;;;;;;;;;;;;;;;;;;;;;;;;;;;;;;;;;;;;;;;;;;;;;;;;;;;;;;;;;;;;;;;;;;;;;;;;;;;;;;;;;;;;;;;;;;;;;;;;;;;
1996;[13884] FERRARI L. (1996);samp. AMT 101;;APENNINIC-MAGHREBIDES CHAIN / APENNINE / TUSCAN VOLCANIC PROVINCE / MONTE AMIATA / BASAL TRACHYDACITIC COMPLEX;S. FLORA;42.8428;11.5883;42.8428;11.5883;;;OUTCROP;;;SUBAERIAL;VOLCANIC ROCK;TRACHYDACITE;;;300000;300000;PLEISTOCENE;;;;;WHOLE ROCK;;;;;;;;;;;;;67.8;0.45;;;16.4;;;;;;;;;;0.94;;1.92;1.92;1.26;0.05;;;;;;;6.01;XRF;;;1.85;0.13;;;;;;;;;;;;;;1.27;;;;;;;;;;;;;;;;;;;;;;;;;;;;;;;;;;;;;;;;;;;;;;;;;;;;;;;;;;;;;;;;;;;;;;;;;;;;;;;;;;;;;;;;;;;;;;;;;;;;;;;;;;;;;;;;;;;;;;;;;;;;;;;;;;;;;;;;;;;;;;;;;;;;;;;;;;;;;;;;;;;;;;;;;;;;;;;;;;;;;;;;;;;;;;;;;;;;;;;;;;;;;;