Year;CITATION;SAMPLE NAME;UNIQUE_ID;LOCATION;LOCATION COMMENT;LATITUDE (MIN.);LONGITUDE (MIN.);LATITUDE (MAX.);LONGITUDE (MAX.);ELEVATION (MIN.);ELEVATION (MAX.);SAMPLING TECHNIQUE;DRILLING DEPTH (MIN.);DRILLING DEPTH (MAX.);LAND/SEA (SAMPLING);ROCK TYPE;ROCK NAME;ROCK TEXTURE;SAMPLE COMMENT;AGE (MIN.);AGE (MAX.);GEOLOGICAL AGE;GEOLOGICAL AGE PREFIX;ERUPTION YEAR;ALTERATION;ALTERATION TYPE;TYPE OF MATERIAL;MINERAL / COMPONENT;SPOT (MINERAL);CRYSTAL;RIM / CORE (MINERAL GRAINS);PRIMARY/SECONDARY;INCLUSION TYPE;SPOT (INCLUSION);MINERAL (INCLUSION);RIM / CORE (INCLUSION);HOSTMINERAL (INCLUSION);HEATING;HEATING TEMPERATURE (?C);SIO2(WT%);TIO2(WT%);ZRO2(WT%);B2O3(WT%);AL2O3(WT%);CR2O3(WT%);LA2O3(WT%);CE2O3(WT%);Y2O3(WT%);V2O3(WT%);NB2O3(WT%);TA2O5(WT%);WO3(WT%);FE2O3T(WT%);FE2O3(WT%);FEOT(WT%);FEO(WT%);CAO(WT%);MGO(WT%);MNO(WT%);BAO(WT%);SRO(WT%);NIO(WT%);ZNO(WT%);CS2O(WT%);RB2O(WT%);K2O(WT%);;;;NA2O(WT%);P2O5(WT%);H2O(WT%);;;;H2OP(WT%);H2OM(WT%);CO2(WT%);C(WT%);F(WT%);CL(WT%);SO2(WT%);SO3(WT%);S(WT%);LOI(WT%);AL(WT%);TI(WT%);FE(WT%);MG(WT%);CA(WT%);K(WT%);NA(WT%);LI(PPM);BE(PPM);B(PPM);C(PPM);F(PPM);NA(PPM);MG(PPM);AL(PPM);P(PPM);S(PPM);CL(PPM);AR40(AT/G);AR40(CCMSTP/G);AR40(MOL/G);AR40(PPB);K(PPM);CA(PPM);SC(PPM);;;;TI(PPM);;;;V(PPM);CR(PPM);MN(PPM);FE(PPM);CO(PPM);NI(PPM);CU(PPM);ZN(PPM);GA(PPM);GE(PPM);AS(PPM);SE(PPM);BR(PPM);RB(PPM): altern. values or methods;;;;SR(PPM): altern. values or methods;;;;Y(PPM): altern. values or methods;;;;ZR(PPM): altern. values or methods;;;;NB(PPM): altern. values or methods;;;;MO(PPM): altern. values or methods;;;;AG(PPM);CD(PPM);IN(PPM);SN(PPM);SB(PPM);TE(PPM);CS(PPM);BA(PPM): altern. values or methods;;;;LA(PPM): altern. values or methods;;;;CE(PPM): altern. values or methods;;;;PR(PPM);ND(PPM): altern. values or methods;;;;SM(PPM): altern. values or methods;;;;EU(PPM);GD(PPM);TB(PPM);DY(PPM);HO(PPM);ER(PPM);TM(PPM);YB(PPM);LU(PPM);HF(PPM);TA(PPM);W(PPM);RE(PPM);AU(PPM);AU(PPB);HG(PPM);HG(PPB);TL(PPM);PB(PPM): altern. values or methods;;;;PB206(PPM);BI(PPM);TH(PPM): altern. values or methods;;;;U(PPM);ND143_ND144;ND143_ND144_INI;EPSILON_ND;EPSILON_ND_INI;SM147_ND144;SR87_SR86;SR87_SR86_INI;EPSILON_SR;EPSILON_SR_INI;RB87_SR86;PB206_PB204;PB206_PB204_INI;PB206_PB207;PB206_PB208;PB207_PB204;PB207_PB204_INI;PB207_PB206;PB208_PB204;PB208_PB204_INI;PB208_PB206;HF176_HF177;HF176_HF177_INI;EPSILON_HF_INI;LU176_HF177;YB176_HF177;AR36_AR39;AR36_AR40;AR37_AR39;AR38_AR39;AR39_AR40;AR40_AR36;AR40_AR39;PB206_U238;PB207_U235;PB208_TH232;TH232_PB204;TH232_U238;U235_PB204;U238_PB204;U238_PB206;D7LI(VS LSVEC);D18O(PER MIL);D18O(VS SMOW);D18O(VS VSMOW);D56FE(VS IRMM-014);D57FE(VS IRMM-014);DD(VS SMOW);ALBITE(MOL%);ANORTHITE(MOL%);CA OLIVINE(MOL%);ENSTATITE(MOL%);FAYALITE(MOL%);FORSTERITE(MOL%);FERROSILITE(MOL%);ORTHOCLASE(MOL%);TEPHROITE(MOL%);ULVOSPINEL(MOL%);WOLLASTONITE(MOL%);AGE(KA): altern. values or methods;;;;AGE(MA): altern. values or methods;;;;;;;;AGE_PB207_PB206(MA);AGE_PB207_U235(MA);AGE_PB206_U238(MA): altern. values or methods;;;;;;AGE_PB208_TH232(MA);
2013;[17640] XU WEN-LIANG (2013);samp. HTW4-1;;CENTRAL ASIAN FOLDBELT - MESOZOIC / CHINA - MESOZOIC / HEILONGJIANG PROVINCE / GANHE FORMATION;;42;129;48;133;;;OUTCROP;;;SUBAERIAL;VOLCANIC ROCK;TRACHYDACITE;;;;;MESOZOIC;;;;;MINERAL / COMPONENT (INCL. GROUNDMASS);ZIRCON;;;;PRIMARY;;;;;;;;;;;;;;;;;;;;;;;;;;;;;;;;;;;;;;;;;;;;;;;;;;;;;;;;;;;;;;;;;;;;;;;;;;;;;;;;;;;;;;;;;;;;;;;;;;;;;;;;;;;;;;;;;;;;;;;;;;;;;;;;;;;;;;;;;;;;;;;;;;;;;;;;;;;;;;;;;;;;;;;;;;;;;;;45989;ICPMS_LA;;;1995;;;;;;;;;;;;;;;;;0.05292;;;;;;;;;;;;;;;;0.01691;0.12587;0.00542;;;;;;;;;;;;;;;;;;;;;;;;;;;;;;;;;;;;325;120;108;PB206_U238 AGE;;;;;;
2013;[17640] XU WEN-LIANG (2013);samp. HTW4-1;;CENTRAL ASIAN FOLDBELT - MESOZOIC / CHINA - MESOZOIC / HEILONGJIANG PROVINCE / GANHE FORMATION;;42;129;48;133;;;OUTCROP;;;SUBAERIAL;VOLCANIC ROCK;TRACHYDACITE;;;;;MESOZOIC;;;;;MINERAL / COMPONENT (INCL. GROUNDMASS);ZIRCON;;;;PRIMARY;;;;;;;;;;;;;;;;;;;;;;;;;;;;;;;;;;;;;;;;;;;;;;;;;;;;;;;;;;;;;;;;;;;;;;;;;;;;;;;;;;;;;;;;;;;;;;;;;;;;;;;;;;;;;;;;;;;;;;;;;;;;;;;;;;;;;;;;;;;;;;;;;;;;;;;;;;;;;;;;;;;;;;;;;;;;;;;7544;ICPMS_LA;;;1147;;;;;;;;;;;;;;;;;0.05024;;;;;;;;;;;;;;;;0.04023;0.28115;0.01275;;;;;;;;;;;;;;;;;;;;;;;;;;;;;;;;;;;;206;252;254;PB206_U238 AGE;;;;;;
2013;[17640] XU WEN-LIANG (2013);samp. HTW4-1;;CENTRAL ASIAN FOLDBELT - MESOZOIC / CHINA - MESOZOIC / HEILONGJIANG PROVINCE / GANHE FORMATION;;42;129;48;133;;;OUTCROP;;;SUBAERIAL;VOLCANIC ROCK;TRACHYDACITE;;;;;MESOZOIC;;;;;MINERAL / COMPONENT (INCL. GROUNDMASS);ZIRCON;;;;PRIMARY;;;;;;;;;;;;;;;;;;;;;;;;;;;;;;;;;;;;;;;;;;;;;;;;;;;;;;;;;;;;;;;;;;;;;;;;;;;;;;;;;;;;;;;;;;;;;;;;;;;;;;;;;;;;;;;;;;;;;;;;;;;;;;;;;;;;;;;;;;;;;;;;;;;;;;;;;;;;;;;;;;;;;;;;;;;;;;;36104;ICPMS_LA;;;871;;;;;;;;;;;;;;;;;0.05349;;;;;;;;;;;;;;;;0.01651;0.12309;0.00564;;;;;;;;;;;;;;;;;;;;;;;;;;;;;;;;;;;;350;118;106;PB206_U238 AGE;;;;;;
2013;[17640] XU WEN-LIANG (2013);samp. HTW4-1;;CENTRAL ASIAN FOLDBELT - MESOZOIC / CHINA - MESOZOIC / HEILONGJIANG PROVINCE / GANHE FORMATION;;42;129;48;133;;;OUTCROP;;;SUBAERIAL;VOLCANIC ROCK;TRACHYDACITE;;;;;MESOZOIC;;;;;MINERAL / COMPONENT (INCL. GROUNDMASS);ZIRCON;;;;PRIMARY;;;;;;;;;;;;;;;;;;;;;;;;;;;;;;;;;;;;;;;;;;;;;;;;;;;;;;;;;;;;;;;;;;;;;;;;;;;;;;;;;;;;;;;;;;;;;;;;;;;;;;;;;;;;;;;;;;;;;;;;;;;;;;;;;;;;;;;;;;;;;;;;;;;;;;;;;;;;;;;;;;;;;;;;;;;;;;;53933;ICPMS_LA;;;1128;;;;;;;;;;;;;;;;;0.04678;;;;;;;;;;;;;;;;0.01677;0.1091;0.00544;;;;;;;;;;;;;;;;;;;;;;;;;;;;;;;;;;;;38;105;107;PB206_U238 AGE;;;;;;
2013;[17640] XU WEN-LIANG (2013);samp. HTW4-1;;CENTRAL ASIAN FOLDBELT - MESOZOIC / CHINA - MESOZOIC / HEILONGJIANG PROVINCE / GANHE FORMATION;;42;129;48;133;;;OUTCROP;;;SUBAERIAL;VOLCANIC ROCK;TRACHYDACITE;;;;;MESOZOIC;;;;;MINERAL / COMPONENT (INCL. GROUNDMASS);ZIRCON;;;;PRIMARY;;;;;;;;;;;;;;;;;;;;;;;;;;;;;;;;;;;;;;;;;;;;;;;;;;;;;;;;;;;;;;;;;;;;;;;;;;;;;;;;;;;;;;;;;;;;;;;;;;;;;;;;;;;;;;;;;;;;;;;;;;;;;;;;;;;;;;;;;;;;;;;;;;;;;;;;;;;;;;;;;;;;;;;;;;;;;;;47122;ICPMS_LA;;;996;;;;;;;;;;;;;;;;;0.04697;;;;;;;;;;;;;;;;0.01644;0.10752;0.00555;;;;;;;;;;;;;;;;;;;;;;;;;;;;;;;;;;;;47;104;105;PB206_U238 AGE;;;;;;
2013;[17640] XU WEN-LIANG (2013);samp. HTW4-1;;CENTRAL ASIAN FOLDBELT - MESOZOIC / CHINA - MESOZOIC / HEILONGJIANG PROVINCE / GANHE FORMATION;;42;129;48;133;;;OUTCROP;;;SUBAERIAL;VOLCANIC ROCK;TRACHYDACITE;;;;;MESOZOIC;;;;;MINERAL / COMPONENT (INCL. GROUNDMASS);ZIRCON;;;;PRIMARY;;;;;;;;;;;;;;;;;;;;;;;;;;;;;;;;;;;;;;;;;;;;;;;;;;;;;;;;;;;;;;;;;;;;;;;;;;;;;;;;;;;;;;;;;;;;;;;;;;;;;;;;;;;;;;;;;;;;;;;;;;;;;;;;;;;;;;;;;;;;;;;;;;;;;;;;;;;;;;;;;;;;;;;;;;;;;;;26153;ICPMS_LA;;;1645;;;;;;;;;;;;;;;;;0.04614;;;;;;;;;;;;;;;;0.01701;0.10932;0.00477;;;;;;;;;;;;;;;;;;;;;;;;;;;;;;;;;;;;5;105;109;PB206_U238 AGE;;;;;;
2013;[17640] XU WEN-LIANG (2013);samp. HTW4-1;;CENTRAL ASIAN FOLDBELT - MESOZOIC / CHINA - MESOZOIC / HEILONGJIANG PROVINCE / GANHE FORMATION;;42;129;48;133;;;OUTCROP;;;SUBAERIAL;VOLCANIC ROCK;TRACHYDACITE;;;;;MESOZOIC;;;;;MINERAL / COMPONENT (INCL. GROUNDMASS);ZIRCON;;;;PRIMARY;;;;;;;;;;;;;;;;;;;;;;;;;;;;;;;;;;;;;;;;;;;;;;;;;;;;;;;;;;;;;;;;;;;;;;;;;;;;;;;;;;;;;;;;;;;;;;;;;;;;;;;;;;;;;;;;;;;;;;;;;;;;;;;;;;;;;;;;;;;;;;;;;;;;;;;;;;;;;;;;;;;;;;;;;;;;;;;14243;ICPMS_LA;;;1318;;;;;;;;;;;;;;;;;0.05207;;;;;;;;;;;;;;;;0.04024;0.29259;0.01263;;;;;;;;;;;;;;;;;;;;;;;;;;;;;;;;;;;;289;261;254;PB206_U238 AGE;;;;;;
2013;[17640] XU WEN-LIANG (2013);samp. HTW4-1;;CENTRAL ASIAN FOLDBELT - MESOZOIC / CHINA - MESOZOIC / HEILONGJIANG PROVINCE / GANHE FORMATION;;42;129;48;133;;;OUTCROP;;;SUBAERIAL;VOLCANIC ROCK;TRACHYDACITE;;;;;MESOZOIC;;;;;MINERAL / COMPONENT (INCL. GROUNDMASS);ZIRCON;;;;PRIMARY;;;;;;;;;;;;;;;;;;;;;;;;;;;;;;;;;;;;;;;;;;;;;;;;;;;;;;;;;;;;;;;;;;;;;;;;;;;;;;;;;;;;;;;;;;;;;;;;;;;;;;;;;;;;;;;;;;;;;;;;;;;;;;;;;;;;;;;;;;;;;;;;;;;;;;;;;;;;;;;;;;;;;;;;;;;;;;;54277;ICPMS_LA;;;879;;;;;;;;;;;;;;;;;0.04852;;;;;;;;;;;;;;;;0.01683;0.11433;0.00529;;;;;;;;;;;;;;;;;;;;;;;;;;;;;;;;;;;;124;110;108;PB206_U238 AGE;;;;;;
2013;[17640] XU WEN-LIANG (2013);samp. HTW4-1;;CENTRAL ASIAN FOLDBELT - MESOZOIC / CHINA - MESOZOIC / HEILONGJIANG PROVINCE / GANHE FORMATION;;42;129;48;133;;;OUTCROP;;;SUBAERIAL;VOLCANIC ROCK;TRACHYDACITE;;;;;MESOZOIC;;;;;MINERAL / COMPONENT (INCL. GROUNDMASS);ZIRCON;;;;PRIMARY;;;;;;;;;;;;;;;;;;;;;;;;;;;;;;;;;;;;;;;;;;;;;;;;;;;;;;;;;;;;;;;;;;;;;;;;;;;;;;;;;;;;;;;;;;;;;;;;;;;;;;;;;;;;;;;;;;;;;;;;;;;;;;;;;;;;;;;;;;;;;;;;;;;;;;;;;;;;;;;;;;;;;;;;;;;;;;;59595;ICPMS_LA;;;1176;;;;;;;;;;;;;;;;;0.05502;;;;;;;;;;;;;;;;0.01645;0.12559;0.00521;;;;;;;;;;;;;;;;;;;;;;;;;;;;;;;;;;;;413;120;105;PB206_U238 AGE;;;;;;
2013;[17640] XU WEN-LIANG (2013);samp. YB4-9;;CENTRAL ASIAN FOLDBELT - MESOZOIC / CHINA - MESOZOIC / JILIN PROVINCE / TUNTIANYING FORMATION;BADAOGOU, LONGJING CITY;43.005;129.1886;43.005;129.1886;;;OUTCROP;;;SUBAERIAL;VOLCANIC ROCK;TRACHYDACITE;;;;;MESOZOIC;;;;;MINERAL / COMPONENT (INCL. GROUNDMASS);ZIRCON;;;;PRIMARY;;;;;;;;;;;;;;;;;;;;;;;;;;;;;;;;;;;;;;;;;;;;;;;;;;;;;;;;;;;;;;;;;;;;;;;;;;;;;;;;;;;;;;;;;;;;;;;;;;;;;;;;;;;;;;;;;;;;;;;;;;;;;;;;;;;;;;;;;;;;;;;;;;;;;;;;;;;;;;;;;;;;;;;;;;;;;;;118;ICPMS_LA;;;185;;;;;;;;;;;;;;;;;0.04894;;;;;;;;;;;;;;;;0.0142;0.09585;0.0045;;;;;;;;;;;;;;;;;;;;;;;;;;;;;;;;;;;;145;93;91;PB206_U238 AGE;;;;;;
2013;[17640] XU WEN-LIANG (2013);samp. YB4-9;;CENTRAL ASIAN FOLDBELT - MESOZOIC / CHINA - MESOZOIC / JILIN PROVINCE / TUNTIANYING FORMATION;BADAOGOU, LONGJING CITY;43.005;129.1886;43.005;129.1886;;;OUTCROP;;;SUBAERIAL;VOLCANIC ROCK;TRACHYDACITE;;;;;MESOZOIC;;;;;MINERAL / COMPONENT (INCL. GROUNDMASS);ZIRCON;;;;PRIMARY;;;;;;;;;;;;;;;;;;;;;;;;;;;;;;;;;;;;;;;;;;;;;;;;;;;;;;;;;;;;;;;;;;;;;;;;;;;;;;;;;;;;;;;;;;;;;;;;;;;;;;;;;;;;;;;;;;;;;;;;;;;;;;;;;;;;;;;;;;;;;;;;;;;;;;;;;;;;;;;;;;;;;;;;;;;;;;;127;ICPMS_LA;;;196;;;;;;;;;;;;;;;;;0.04796;;;;;;;;;;;;;;;;0.01346;0.089;0.00427;;;;;;;;;;;;;;;;;;;;;;;;;;;;;;;;;;;;98;87;86;PB206_U238 AGE;;;;;;
2013;[17640] XU WEN-LIANG (2013);samp. YB4-9;;CENTRAL ASIAN FOLDBELT - MESOZOIC / CHINA - MESOZOIC / JILIN PROVINCE / TUNTIANYING FORMATION;BADAOGOU, LONGJING CITY;43.005;129.1886;43.005;129.1886;;;OUTCROP;;;SUBAERIAL;VOLCANIC ROCK;TRACHYDACITE;;;;;MESOZOIC;;;;;MINERAL / COMPONENT (INCL. GROUNDMASS);ZIRCON;;;;PRIMARY;;;;;;;;;;;;;;;;;;;;;;;;;;;;;;;;;;;;;;;;;;;;;;;;;;;;;;;;;;;;;;;;;;;;;;;;;;;;;;;;;;;;;;;;;;;;;;;;;;;;;;;;;;;;;;;;;;;;;;;;;;;;;;;;;;;;;;;;;;;;;;;;;;;;;;;;;;;;;;;;;;;;;;;;;;;;;;;223;ICPMS_LA;;;279;;;;;;;;;;;;;;;;;0.05158;;;;;;;;;;;;;;;;0.01334;0.09486;0.00419;;;;;;;;;;;;;;;;;;;;;;;;;;;;;;;;;;;;267;92;85;PB206_U238 AGE;;;;;;
2013;[17640] XU WEN-LIANG (2013);samp. YB4-9;;CENTRAL ASIAN FOLDBELT - MESOZOIC / CHINA - MESOZOIC / JILIN PROVINCE / TUNTIANYING FORMATION;BADAOGOU, LONGJING CITY;43.005;129.1886;43.005;129.1886;;;OUTCROP;;;SUBAERIAL;VOLCANIC ROCK;TRACHYDACITE;;;;;MESOZOIC;;;;;MINERAL / COMPONENT (INCL. GROUNDMASS);ZIRCON;;;;PRIMARY;;;;;;;;;;;;;;;;;;;;;;;;;;;;;;;;;;;;;;;;;;;;;;;;;;;;;;;;;;;;;;;;;;;;;;;;;;;;;;;;;;;;;;;;;;;;;;;;;;;;;;;;;;;;;;;;;;;;;;;;;;;;;;;;;;;;;;;;;;;;;;;;;;;;;;;;;;;;;;;;;;;;;;;;;;;;;;;141;ICPMS_LA;;;180;;;;;;;;;;;;;;;;;0.06774;;;;;;;;;;;;;;;;0.01334;0.12456;0.00406;;;;;;;;;;;;;;;;;;;;;;;;;;;;;;;;;;;;860;119;85;PB206_U238 AGE;;;;;;
2013;[17640] XU WEN-LIANG (2013);samp. YB4-9;;CENTRAL ASIAN FOLDBELT - MESOZOIC / CHINA - MESOZOIC / JILIN PROVINCE / TUNTIANYING FORMATION;BADAOGOU, LONGJING CITY;43.005;129.1886;43.005;129.1886;;;OUTCROP;;;SUBAERIAL;VOLCANIC ROCK;TRACHYDACITE;;;;;MESOZOIC;;;;;MINERAL / COMPONENT (INCL. GROUNDMASS);ZIRCON;;;;PRIMARY;;;;;;;;;;;;;;;;;;;;;;;;;;;;;;;;;;;;;;;;;;;;;;;;;;;;;;;;;;;;;;;;;;;;;;;;;;;;;;;;;;;;;;;;;;;;;;;;;;;;;;;;;;;;;;;;;;;;;;;;;;;;;;;;;;;;;;;;;;;;;;;;;;;;;;;;;;;;;;;;;;;;;;;;;;;;;;;295;ICPMS_LA;;;246;;;;;;;;;;;;;;;;;0.0533;;;;;;;;;;;;;;;;0.01424;0.10467;0.00446;;;;;;;;;;;;;;;;;;;;;;;;;;;;;;;;;;;;342;101;91;PB206_U238 AGE;;;;;;
2013;[17640] XU WEN-LIANG (2013);samp. YB4-9;;CENTRAL ASIAN FOLDBELT - MESOZOIC / CHINA - MESOZOIC / JILIN PROVINCE / TUNTIANYING FORMATION;BADAOGOU, LONGJING CITY;43.005;129.1886;43.005;129.1886;;;OUTCROP;;;SUBAERIAL;VOLCANIC ROCK;TRACHYDACITE;;;;;MESOZOIC;;;;;MINERAL / COMPONENT (INCL. GROUNDMASS);ZIRCON;;;;PRIMARY;;;;;;;;;;;;;;;;;;;;;;;;;;;;;;;;;;;;;;;;;;;;;;;;;;;;;;;;;;;;;;;;;;;;;;;;;;;;;;;;;;;;;;;;;;;;;;;;;;;;;;;;;;;;;;;;;;;;;;;;;;;;;;;;;;;;;;;;;;;;;;;;;;;;;;;;;;;;;;;;;;;;;;;;;;;;;;;317;ICPMS_LA;;;331;;;;;;;;;;;;;;;;;0.04857;;;;;;;;;;;;;;;;0.01334;0.08933;0.00423;;;;;;;;;;;;;;;;;;;;;;;;;;;;;;;;;;;;127;87;85;PB206_U238 AGE;;;;;;
2013;[17640] XU WEN-LIANG (2013);samp. YB4-9;;CENTRAL ASIAN FOLDBELT - MESOZOIC / CHINA - MESOZOIC / JILIN PROVINCE / TUNTIANYING FORMATION;BADAOGOU, LONGJING CITY;43.005;129.1886;43.005;129.1886;;;OUTCROP;;;SUBAERIAL;VOLCANIC ROCK;TRACHYDACITE;;;;;MESOZOIC;;;;;MINERAL / COMPONENT (INCL. GROUNDMASS);ZIRCON;;;;PRIMARY;;;;;;;;;;;;;;;;;;;;;;;;;;;;;;;;;;;;;;;;;;;;;;;;;;;;;;;;;;;;;;;;;;;;;;;;;;;;;;;;;;;;;;;;;;;;;;;;;;;;;;;;;;;;;;;;;;;;;;;;;;;;;;;;;;;;;;;;;;;;;;;;;;;;;;;;;;;;;;;;;;;;;;;;;;;;;;;185;ICPMS_LA;;;198;;;;;;;;;;;;;;;;;0.05159;;;;;;;;;;;;;;;;0.01285;0.09142;0.00404;;;;;;;;;;;;;;;;;;;;;;;;;;;;;;;;;;;;267;89;82;PB206_U238 AGE;;;;;;
2013;[17640] XU WEN-LIANG (2013);samp. YB4-9;;CENTRAL ASIAN FOLDBELT - MESOZOIC / CHINA - MESOZOIC / JILIN PROVINCE / TUNTIANYING FORMATION;BADAOGOU, LONGJING CITY;43.005;129.1886;43.005;129.1886;;;OUTCROP;;;SUBAERIAL;VOLCANIC ROCK;TRACHYDACITE;;;;;MESOZOIC;;;;;MINERAL / COMPONENT (INCL. GROUNDMASS);ZIRCON;;;;PRIMARY;;;;;;;;;;;;;;;;;;;;;;;;;;;;;;;;;;;;;;;;;;;;;;;;;;;;;;;;;;;;;;;;;;;;;;;;;;;;;;;;;;;;;;;;;;;;;;;;;;;;;;;;;;;;;;;;;;;;;;;;;;;;;;;;;;;;;;;;;;;;;;;;;;;;;;;;;;;;;;;;;;;;;;;;;;;;;;;104;ICPMS_LA;;;113;;;;;;;;;;;;;;;;;0.0571;;;;;;;;;;;;;;;;0.01321;0.10402;0.0041;;;;;;;;;;;;;;;;;;;;;;;;;;;;;;;;;;;;495;100;85;PB206_U238 AGE;;;;;;
2013;[17640] XU WEN-LIANG (2013);samp. YB4-9;;CENTRAL ASIAN FOLDBELT - MESOZOIC / CHINA - MESOZOIC / JILIN PROVINCE / TUNTIANYING FORMATION;BADAOGOU, LONGJING CITY;43.005;129.1886;43.005;129.1886;;;OUTCROP;;;SUBAERIAL;VOLCANIC ROCK;TRACHYDACITE;;;;;MESOZOIC;;;;;MINERAL / COMPONENT (INCL. GROUNDMASS);ZIRCON;;;;PRIMARY;;;;;;;;;;;;;;;;;;;;;;;;;;;;;;;;;;;;;;;;;;;;;;;;;;;;;;;;;;;;;;;;;;;;;;;;;;;;;;;;;;;;;;;;;;;;;;;;;;;;;;;;;;;;;;;;;;;;;;;;;;;;;;;;;;;;;;;;;;;;;;;;;;;;;;;;;;;;;;;;;;;;;;;;;;;;;;;220;ICPMS_LA;;;251;;;;;;;;;;;;;;;;;0.05258;;;;;;;;;;;;;;;;0.01362;0.09874;0.00427;;;;;;;;;;;;;;;;;;;;;;;;;;;;;;;;;;;;311;96;87;PB206_U238 AGE;;;;;;
2013;[17640] XU WEN-LIANG (2013);samp. YB4-9;;CENTRAL ASIAN FOLDBELT - MESOZOIC / CHINA - MESOZOIC / JILIN PROVINCE / TUNTIANYING FORMATION;BADAOGOU, LONGJING CITY;43.005;129.1886;43.005;129.1886;;;OUTCROP;;;SUBAERIAL;VOLCANIC ROCK;TRACHYDACITE;;;;;MESOZOIC;;;;;MINERAL / COMPONENT (INCL. GROUNDMASS);ZIRCON;;;;PRIMARY;;;;;;;;;;;;;;;;;;;;;;;;;;;;;;;;;;;;;;;;;;;;;;;;;;;;;;;;;;;;;;;;;;;;;;;;;;;;;;;;;;;;;;;;;;;;;;;;;;;;;;;;;;;;;;;;;;;;;;;;;;;;;;;;;;;;;;;;;;;;;;;;;;;;;;;;;;;;;;;;;;;;;;;;;;;;;;;100;ICPMS_LA;;;135;;;;;;;;;;;;;;;;;0.05813;;;;;;;;;;;;;;;;0.01267;0.10152;0.00393;;;;;;;;;;;;;;;;;;;;;;;;;;;;;;;;;;;;535;98;81;PB206_U238 AGE;;;;;;
2013;[17640] XU WEN-LIANG (2013);samp. YB4-9;;CENTRAL ASIAN FOLDBELT - MESOZOIC / CHINA - MESOZOIC / JILIN PROVINCE / TUNTIANYING FORMATION;BADAOGOU, LONGJING CITY;43.005;129.1886;43.005;129.1886;;;OUTCROP;;;SUBAERIAL;VOLCANIC ROCK;TRACHYDACITE;;;;;MESOZOIC;;;;;MINERAL / COMPONENT (INCL. GROUNDMASS);ZIRCON;;;;PRIMARY;;;;;;;;;;;;;;;;;;;;;;;;;;;;;;;;;;;;;;;;;;;;;;;;;;;;;;;;;;;;;;;;;;;;;;;;;;;;;;;;;;;;;;;;;;;;;;;;;;;;;;;;;;;;;;;;;;;;;;;;;;;;;;;;;;;;;;;;;;;;;;;;;;;;;;;;;;;;;;;;;;;;;;;;;;;;;;;153;ICPMS_LA;;;200;;;;;;;;;;;;;;;;;0.06071;;;;;;;;;;;;;;;;0.01423;0.1191;0.0092;;;;;;;;;;;;;;;;;;;;;;;;;;;;;;;;;;;;629;114;91;PB206_U238 AGE;;;;;;
2013;[17640] XU WEN-LIANG (2013);samp. YB4-9;;CENTRAL ASIAN FOLDBELT - MESOZOIC / CHINA - MESOZOIC / JILIN PROVINCE / TUNTIANYING FORMATION;BADAOGOU, LONGJING CITY;43.005;129.1886;43.005;129.1886;;;OUTCROP;;;SUBAERIAL;VOLCANIC ROCK;TRACHYDACITE;;;;;MESOZOIC;;;;;MINERAL / COMPONENT (INCL. GROUNDMASS);ZIRCON;;;;PRIMARY;;;;;;;;;;;;;;;;;;;;;;;;;;;;;;;;;;;;;;;;;;;;;;;;;;;;;;;;;;;;;;;;;;;;;;;;;;;;;;;;;;;;;;;;;;;;;;;;;;;;;;;;;;;;;;;;;;;;;;;;;;;;;;;;;;;;;;;;;;;;;;;;;;;;;;;;;;;;;;;;;;;;;;;;;;;;;;;312;ICPMS_LA;;;344;;;;;;;;;;;;;;;;;0.05256;;;;;;;;;;;;;;;;0.01355;0.09816;0.00425;;;;;;;;;;;;;;;;;;;;;;;;;;;;;;;;;;;;310;95;87;PB206_U238 AGE;;;;;;
2013;[17640] XU WEN-LIANG (2013);samp. YB4-9;;CENTRAL ASIAN FOLDBELT - MESOZOIC / CHINA - MESOZOIC / JILIN PROVINCE / TUNTIANYING FORMATION;BADAOGOU, LONGJING CITY;43.005;129.1886;43.005;129.1886;;;OUTCROP;;;SUBAERIAL;VOLCANIC ROCK;TRACHYDACITE;;;;;MESOZOIC;;;;;MINERAL / COMPONENT (INCL. GROUNDMASS);ZIRCON;;;;PRIMARY;;;;;;;;;;;;;;;;;;;;;;;;;;;;;;;;;;;;;;;;;;;;;;;;;;;;;;;;;;;;;;;;;;;;;;;;;;;;;;;;;;;;;;;;;;;;;;;;;;;;;;;;;;;;;;;;;;;;;;;;;;;;;;;;;;;;;;;;;;;;;;;;;;;;;;;;;;;;;;;;;;;;;;;;;;;;;;;312;ICPMS_LA;;;292;;;;;;;;;;;;;;;;;0.05563;;;;;;;;;;;;;;;;0.01344;0.10306;0.00419;;;;;;;;;;;;;;;;;;;;;;;;;;;;;;;;;;;;438;100;86;PB206_U238 AGE;;;;;;
2013;[17640] XU WEN-LIANG (2013);samp. YB4-9;;CENTRAL ASIAN FOLDBELT - MESOZOIC / CHINA - MESOZOIC / JILIN PROVINCE / TUNTIANYING FORMATION;BADAOGOU, LONGJING CITY;43.005;129.1886;43.005;129.1886;;;OUTCROP;;;SUBAERIAL;VOLCANIC ROCK;TRACHYDACITE;;;;;MESOZOIC;;;;;MINERAL / COMPONENT (INCL. GROUNDMASS);ZIRCON;;;;PRIMARY;;;;;;;;;;;;;;;;;;;;;;;;;;;;;;;;;;;;;;;;;;;;;;;;;;;;;;;;;;;;;;;;;;;;;;;;;;;;;;;;;;;;;;;;;;;;;;;;;;;;;;;;;;;;;;;;;;;;;;;;;;;;;;;;;;;;;;;;;;;;;;;;;;;;;;;;;;;;;;;;;;;;;;;;;;;;;;;106;ICPMS_LA;;;133;;;;;;;;;;;;;;;;;0.05022;;;;;;;;;;;;;;;;0.01395;0.0966;0.0044;;;;;;;;;;;;;;;;;;;;;;;;;;;;;;;;;;;;205;94;89;PB206_U238 AGE;;;;;;
2013;[17640] XU WEN-LIANG (2013);samp. YB4-9;;CENTRAL ASIAN FOLDBELT - MESOZOIC / CHINA - MESOZOIC / JILIN PROVINCE / TUNTIANYING FORMATION;BADAOGOU, LONGJING CITY;43.005;129.1886;43.005;129.1886;;;OUTCROP;;;SUBAERIAL;VOLCANIC ROCK;TRACHYDACITE;;;;;MESOZOIC;;;;;MINERAL / COMPONENT (INCL. GROUNDMASS);ZIRCON;;;;PRIMARY;;;;;;;;;;;;;;;;;;;;;;;;;;;;;;;;;;;;;;;;;;;;;;;;;;;;;;;;;;;;;;;;;;;;;;;;;;;;;;;;;;;;;;;;;;;;;;;;;;;;;;;;;;;;;;;;;;;;;;;;;;;;;;;;;;;;;;;;;;;;;;;;;;;;;;;;;;;;;;;;;;;;;;;;;;;;;;;134;ICPMS_LA;;;158;;;;;;;;;;;;;;;;;0.0546;;;;;;;;;;;;;;;;0.01429;0.10756;0.00445;;;;;;;;;;;;;;;;;;;;;;;;;;;;;;;;;;;;396;104;92;PB206_U238 AGE;;;;;;
2013;[17640] XU WEN-LIANG (2013);samp. YB4-9;;CENTRAL ASIAN FOLDBELT - MESOZOIC / CHINA - MESOZOIC / JILIN PROVINCE / TUNTIANYING FORMATION;BADAOGOU, LONGJING CITY;43.005;129.1886;43.005;129.1886;;;OUTCROP;;;SUBAERIAL;VOLCANIC ROCK;TRACHYDACITE;;;;;MESOZOIC;;;;;MINERAL / COMPONENT (INCL. GROUNDMASS);ZIRCON;;;;PRIMARY;;;;;;;;;;;;;;;;;;;;;;;;;;;;;;;;;;;;;;;;;;;;;;;;;;;;;;;;;;;;;;;;;;;;;;;;;;;;;;;;;;;;;;;;;;;;;;;;;;;;;;;;;;;;;;;;;;;;;;;;;;;;;;;;;;;;;;;;;;;;;;;;;;;;;;;;;;;;;;;;;;;;;;;;;;;;;;;113;ICPMS_LA;;;142;;;;;;;;;;;;;;;;;0.04909;;;;;;;;;;;;;;;;0.01425;0.09644;0.00451;;;;;;;;;;;;;;;;;;;;;;;;;;;;;;;;;;;;152;93;91;PB206_U238 AGE;;;;;;
2013;[17640] XU WEN-LIANG (2013);samp. YB4-9;;CENTRAL ASIAN FOLDBELT - MESOZOIC / CHINA - MESOZOIC / JILIN PROVINCE / TUNTIANYING FORMATION;BADAOGOU, LONGJING CITY;43.005;129.1886;43.005;129.1886;;;OUTCROP;;;SUBAERIAL;VOLCANIC ROCK;TRACHYDACITE;;;;;MESOZOIC;;;;;MINERAL / COMPONENT (INCL. GROUNDMASS);ZIRCON;;;;PRIMARY;;;;;;;;;;;;;;;;;;;;;;;;;;;;;;;;;;;;;;;;;;;;;;;;;;;;;;;;;;;;;;;;;;;;;;;;;;;;;;;;;;;;;;;;;;;;;;;;;;;;;;;;;;;;;;;;;;;;;;;;;;;;;;;;;;;;;;;;;;;;;;;;;;;;;;;;;;;;;;;;;;;;;;;;;;;;;;;339;ICPMS_LA;;;375;;;;;;;;;;;;;;;;;0.06546;;;;;;;;;;;;;;;;0.01364;0.12315;0.00417;;;;;;;;;;;;;;;;;;;;;;;;;;;;;;;;;;;;789;118;87;PB206_U238 AGE;;;;;;