Year;CITATION;SAMPLE NAME;UNIQUE_ID;LOCATION;LOCATION COMMENT;LATITUDE (MIN.);LONGITUDE (MIN.);LATITUDE (MAX.);LONGITUDE (MAX.);ELEVATION (MIN.);ELEVATION (MAX.);SAMPLING TECHNIQUE;DRILLING DEPTH (MIN.);DRILLING DEPTH (MAX.);LAND/SEA (SAMPLING);ROCK TYPE;ROCK NAME;ROCK TEXTURE;SAMPLE COMMENT;AGE (MIN.);AGE (MAX.);GEOLOGICAL AGE;GEOLOGICAL AGE PREFIX;ERUPTION YEAR;ALTERATION;ALTERATION TYPE;TYPE OF MATERIAL;MINERAL / COMPONENT;SPOT (MINERAL);CRYSTAL;RIM / CORE (MINERAL GRAINS);PRIMARY/SECONDARY;INCLUSION TYPE;SPOT (INCLUSION);MINERAL (INCLUSION);RIM / CORE (INCLUSION);HOSTMINERAL (INCLUSION);HEATING;HEATING TEMPERATURE (?C);SIO2(WT%);TIO2(WT%);ZRO2(WT%);B2O3(WT%);AL2O3(WT%);CR2O3(WT%);LA2O3(WT%);CE2O3(WT%);Y2O3(WT%);V2O3(WT%);NB2O3(WT%);TA2O5(WT%);WO3(WT%);FE2O3T(WT%);FE2O3(WT%);FEOT(WT%);FEO(WT%);CAO(WT%);MGO(WT%);MNO(WT%);BAO(WT%);SRO(WT%);NIO(WT%);ZNO(WT%);CS2O(WT%);RB2O(WT%);K2O(WT%);;;;NA2O(WT%);P2O5(WT%);H2O(WT%);;;;H2OP(WT%);H2OM(WT%);CO2(WT%);C(WT%);F(WT%);CL(WT%);SO2(WT%);SO3(WT%);S(WT%);LOI(WT%);AL(WT%);TI(WT%);FE(WT%);MG(WT%);CA(WT%);K(WT%);NA(WT%);LI(PPM);BE(PPM);B(PPM);C(PPM);F(PPM);NA(PPM);MG(PPM);AL(PPM);P(PPM);S(PPM);CL(PPM);AR40(AT/G);AR40(CCMSTP/G);AR40(MOL/G);AR40(PPB);K(PPM);CA(PPM);SC(PPM);;;;TI(PPM);;;;V(PPM);CR(PPM);MN(PPM);FE(PPM);CO(PPM);NI(PPM);CU(PPM);ZN(PPM);GA(PPM);GE(PPM);AS(PPM);SE(PPM);BR(PPM);RB(PPM): altern. values or methods;;;;SR(PPM): altern. values or methods;;;;Y(PPM): altern. values or methods;;;;ZR(PPM): altern. values or methods;;;;NB(PPM): altern. values or methods;;;;MO(PPM): altern. values or methods;;;;AG(PPM);CD(PPM);IN(PPM);SN(PPM);SB(PPM);TE(PPM);CS(PPM);BA(PPM): altern. values or methods;;;;LA(PPM): altern. values or methods;;;;CE(PPM): altern. values or methods;;;;PR(PPM);ND(PPM): altern. values or methods;;;;SM(PPM): altern. values or methods;;;;EU(PPM);GD(PPM);TB(PPM);DY(PPM);HO(PPM);ER(PPM);TM(PPM);YB(PPM);LU(PPM);HF(PPM);TA(PPM);W(PPM);RE(PPM);AU(PPM);AU(PPB);HG(PPM);HG(PPB);TL(PPM);PB(PPM): altern. values or methods;;;;PB206(PPM);BI(PPM);TH(PPM): altern. values or methods;;;;U(PPM);ND143_ND144;ND143_ND144_INI;EPSILON_ND;EPSILON_ND_INI;SM147_ND144;SR87_SR86;SR87_SR86_INI;EPSILON_SR;EPSILON_SR_INI;RB87_SR86;PB206_PB204;PB206_PB204_INI;PB206_PB207;PB206_PB208;PB207_PB204;PB207_PB204_INI;PB207_PB206;PB208_PB204;PB208_PB204_INI;PB208_PB206;HF176_HF177;HF176_HF177_INI;EPSILON_HF_INI;LU176_HF177;YB176_HF177;AR36_AR39;AR36_AR40;AR37_AR39;AR38_AR39;AR39_AR40;AR40_AR36;AR40_AR39;PB206_U238;PB207_U235;PB208_TH232;TH232_PB204;TH232_U238;U235_PB204;U238_PB204;U238_PB206;D7LI(VS LSVEC);D18O(PER MIL);D18O(VS SMOW);D18O(VS VSMOW);D56FE(VS IRMM-014);D57FE(VS IRMM-014);DD(VS SMOW);ALBITE(MOL%);ANORTHITE(MOL%);CA OLIVINE(MOL%);ENSTATITE(MOL%);FAYALITE(MOL%);FORSTERITE(MOL%);FERROSILITE(MOL%);ORTHOCLASE(MOL%);TEPHROITE(MOL%);ULVOSPINEL(MOL%);WOLLASTONITE(MOL%);AGE(KA): altern. values or methods;;;;AGE(MA): altern. values or methods;;;;;;;;AGE_PB207_PB206(MA);AGE_PB207_U235(MA);AGE_PB206_U238(MA): altern. values or methods;;;;;;AGE_PB208_TH232(MA);
2014;[18586] BACHMANN O. (2014);samp. CRT09-10A;;NORTH AMERICAN CORDILLERA - CENOZOIC/QUATERNARY / CORDILLERA UNITED STATES / COLORADO / SAN JUAN VOLCANIC FIELD / CARPENTER RIDGE TUFF;BACHELOR CALDERA, SOUTHERN EDGE OF CARPENTER RODGE;37.5;-106;38.5;-107.5;;;OUTCROP;;;SUBAERIAL;VOLCANIC ROCK;TRACHYDACITE;;CRYSTAL-RICH PUMICE;27600000;27600000;OLIGOCENE;;;;;MINERAL / COMPONENT (INCL. GROUNDMASS);SANIDINE;CRT09-10ALINE#1.93;;;PRIMARY;;;;;;;;63.46;;;;18.86;;;;;;;;;;;0.2594;;0.4996;;;2.2313;;;;;;8.62;EMP (EPMA);;;4.11;;;;;;;;;;;;;;;;;;;;;;;;;;;;;;;;;;;;;;;;;;;;;;;;;;;;;;;;;;;;;;;;;;;;;;;;;;;;;;;;;;;;;;;;;;;;;;;;;;;;;;;;;;;;;;;;;;;;;;;;;;;;;;;;;;;;;;;;;;;;;;;;;;;;;;;;;;;;;;;;;;;;;;;;;;;;;;;;;;;;;;;;;;;;;38.9153294114696;2.61415368674316;;;;;;53.7029643262233;;;;;;;;;;;;;;;;;;;;;;;;;
2014;[18586] BACHMANN O. (2014);samp. CRT09-10C;;NORTH AMERICAN CORDILLERA - CENOZOIC/QUATERNARY / CORDILLERA UNITED STATES / COLORADO / SAN JUAN VOLCANIC FIELD / CARPENTER RIDGE TUFF;BACHELOR CALDERA, SOUTHERN EDGE OF CARPENTER RODGE;37.5;-106;38.5;-107.5;;;OUTCROP;;;SUBAERIAL;VOLCANIC ROCK;TRACHYDACITE;;CRYSTAL-RICH MATERIAL, WELDED TOP;27600000;27600000;OLIGOCENE;;;;;MINERAL / COMPONENT (INCL. GROUNDMASS);SANIDINE;CRT 09-10C SAN 1 LS1 LINE#1;;;PRIMARY;;;;;;;;65.35;;;;18.14;;;;;;;;;;;0.0614;;0.2364;;;0.8465;;;;;;10.89;EMP (EPMA);;;3.31;;;;;;;;;;;;;;;;;;;;;;;;;;;;;;;;;;;;;;;;;;;;;;;;;;;;;;;;;;;;;;;;;;;;;;;;;;;;;;;;;;;;;;;;;;;;;;;;;;;;;;;;;;;;;;;;;;;;;;;;;;;;;;;;;;;;;;;;;;;;;;;;;;;;;;;;;;;;;;;;;;;;;;;;;;;;;;;;;;;;;;;;;;;;;30.6565055023874;1.20996253880811;;;;;;66.3643184214164;;;;;;;;;;;;;;;;;;;;;;;;;
2014;[18586] BACHMANN O. (2014);samp. CRT09-10C;;NORTH AMERICAN CORDILLERA - CENOZOIC/QUATERNARY / CORDILLERA UNITED STATES / COLORADO / SAN JUAN VOLCANIC FIELD / CARPENTER RIDGE TUFF;BACHELOR CALDERA, SOUTHERN EDGE OF CARPENTER RODGE;37.5;-106;38.5;-107.5;;;OUTCROP;;;SUBAERIAL;VOLCANIC ROCK;TRACHYDACITE;;CRYSTAL-RICH MATERIAL, WELDED TOP;27600000;27600000;OLIGOCENE;;;;;MINERAL / COMPONENT (INCL. GROUNDMASS);SANIDINE;CRT 09-10C SAN 1 LS1;;;PRIMARY;;;;;;;;62.86;;;;17.79;;;;;;;;;;;0.0408;;0.2146;;;0.7541;;;;;;10.74;EMP (EPMA);;;3.32;;;;;;;;;;;;;;;;;;;;;;;;;;;;;;;;;;;;;;;;;;;;;;;;;;;;;;;;;;;;;;;;;;;;;;;;;;;;;;;;;;;;;;;;;;;;;;;;;;;;;;;;;;;;;;;;;;;;;;;;;;;;;;;;;;;;;;;;;;;;;;;;;;;;;;;;;;;;;;;;;;;;;;;;;;;;;;;;;;;;;;;;;;;;;31.0993609106682;1.11089470246683;;;;;;66.1956979900663;;;;;;;;;;;;;;;;;;;;;;;;;
2014;[18586] BACHMANN O. (2014);samp. CRT09-10C;;NORTH AMERICAN CORDILLERA - CENOZOIC/QUATERNARY / CORDILLERA UNITED STATES / COLORADO / SAN JUAN VOLCANIC FIELD / CARPENTER RIDGE TUFF;BACHELOR CALDERA, SOUTHERN EDGE OF CARPENTER RODGE;37.5;-106;38.5;-107.5;;;OUTCROP;;;SUBAERIAL;VOLCANIC ROCK;TRACHYDACITE;;CRYSTAL-RICH MATERIAL, WELDED TOP;27600000;27600000;OLIGOCENE;;;;;MINERAL / COMPONENT (INCL. GROUNDMASS);SANIDINE;CRT 09-10C SAN 1 LS1;;;PRIMARY;;;;;;;;65.37;;;;18.18;;;;;;;;;;;0.0735;;0.2018;;;0.6573;;;;;;11.21;EMP (EPMA);;;3.51;;;;;;;;;;;;;;;;;;;;;;;;;;;;;;;;;;;;;;;;;;;;;;;;;;;;;;;;;;;;;;;;;;;;;;;;;;;;;;;;;;;;;;;;;;;;;;;;;;;;;;;;;;;;;;;;;;;;;;;;;;;;;;;;;;;;;;;;;;;;;;;;;;;;;;;;;;;;;;;;;;;;;;;;;;;;;;;;;;;;;;;;;;;;;31.4917026493653;1.00055273848456;;;;;;66.1769492018799;;;;;;;;;;;;;;;;;;;;;;;;;
2014;[18586] BACHMANN O. (2014);samp. CRT09-10C;;NORTH AMERICAN CORDILLERA - CENOZOIC/QUATERNARY / CORDILLERA UNITED STATES / COLORADO / SAN JUAN VOLCANIC FIELD / CARPENTER RIDGE TUFF;BACHELOR CALDERA, SOUTHERN EDGE OF CARPENTER RODGE;37.5;-106;38.5;-107.5;;;OUTCROP;;;SUBAERIAL;VOLCANIC ROCK;TRACHYDACITE;;CRYSTAL-RICH MATERIAL, WELDED TOP;27600000;27600000;OLIGOCENE;;;;;MINERAL / COMPONENT (INCL. GROUNDMASS);SANIDINE;CRT 09-10C SAN 1 LS1;;;PRIMARY;;;;;;;;65.42;;;;18.2;;;;;;;;;;;0.1063;;0.2341;;;0.5527;;;;;;11.06;EMP (EPMA);;;3.63;;;;;;;;;;;;;;;;;;;;;;;;;;;;;;;;;;;;;;;;;;;;;;;;;;;;;;;;;;;;;;;;;;;;;;;;;;;;;;;;;;;;;;;;;;;;;;;;;;;;;;;;;;;;;;;;;;;;;;;;;;;;;;;;;;;;;;;;;;;;;;;;;;;;;;;;;;;;;;;;;;;;;;;;;;;;;;;;;;;;;;;;;;;;;32.5229717699214;1.15908372613364;;;;;;65.2004852453106;;;;;;;;;;;;;;;;;;;;;;;;;
2014;[18586] BACHMANN O. (2014);samp. CRT09-10C;;NORTH AMERICAN CORDILLERA - CENOZOIC/QUATERNARY / CORDILLERA UNITED STATES / COLORADO / SAN JUAN VOLCANIC FIELD / CARPENTER RIDGE TUFF;BACHELOR CALDERA, SOUTHERN EDGE OF CARPENTER RODGE;37.5;-106;38.5;-107.5;;;OUTCROP;;;SUBAERIAL;VOLCANIC ROCK;TRACHYDACITE;;CRYSTAL-RICH MATERIAL, WELDED TOP;27600000;27600000;OLIGOCENE;;;;;MINERAL / COMPONENT (INCL. GROUNDMASS);SANIDINE;CRT 09-10C SAN 1 LS1;;;PRIMARY;;;;;;;;64.34;;;;18.03;;;;;;;;;;;0.0899;;0.2598;;;0.5662;;;;;;10.81;EMP (EPMA);;;3.68;;;;;;;;;;;;;;;;;;;;;;;;;;;;;;;;;;;;;;;;;;;;;;;;;;;;;;;;;;;;;;;;;;;;;;;;;;;;;;;;;;;;;;;;;;;;;;;;;;;;;;;;;;;;;;;;;;;;;;;;;;;;;;;;;;;;;;;;;;;;;;;;;;;;;;;;;;;;;;;;;;;;;;;;;;;;;;;;;;;;;;;;;;;;;33.2607388522806;1.29763639533192;;;;;;64.2868093299467;;;;;;;;;;;;;;;;;;;;;;;;;
2014;[18586] BACHMANN O. (2014);samp. CRT09-10C;;NORTH AMERICAN CORDILLERA - CENOZOIC/QUATERNARY / CORDILLERA UNITED STATES / COLORADO / SAN JUAN VOLCANIC FIELD / CARPENTER RIDGE TUFF;BACHELOR CALDERA, SOUTHERN EDGE OF CARPENTER RODGE;37.5;-106;38.5;-107.5;;;OUTCROP;;;SUBAERIAL;VOLCANIC ROCK;TRACHYDACITE;;CRYSTAL-RICH MATERIAL, WELDED TOP;27600000;27600000;OLIGOCENE;;;;;MINERAL / COMPONENT (INCL. GROUNDMASS);SANIDINE;CRT 09-10C SAN 1 LS1;;;PRIMARY;;;;;;;;65.36;;;;18.4;;;;;;;;;;;0.0549;;0.2163;;;0.5547;;;;;;11.2;EMP (EPMA);;;3.64;;;;;;;;;;;;;;;;;;;;;;;;;;;;;;;;;;;;;;;;;;;;;;;;;;;;;;;;;;;;;;;;;;;;;;;;;;;;;;;;;;;;;;;;;;;;;;;;;;;;;;;;;;;;;;;;;;;;;;;;;;;;;;;;;;;;;;;;;;;;;;;;;;;;;;;;;;;;;;;;;;;;;;;;;;;;;;;;;;;;;;;;;;;;;32.3438446132514;1.06212730828383;;;;;;65.4817661793482;;;;;;;;;;;;;;;;;;;;;;;;;
2014;[18586] BACHMANN O. (2014);samp. CRT09-10C;;NORTH AMERICAN CORDILLERA - CENOZOIC/QUATERNARY / CORDILLERA UNITED STATES / COLORADO / SAN JUAN VOLCANIC FIELD / CARPENTER RIDGE TUFF;BACHELOR CALDERA, SOUTHERN EDGE OF CARPENTER RODGE;37.5;-106;38.5;-107.5;;;OUTCROP;;;SUBAERIAL;VOLCANIC ROCK;TRACHYDACITE;;CRYSTAL-RICH MATERIAL, WELDED TOP;27600000;27600000;OLIGOCENE;;;;;MINERAL / COMPONENT (INCL. GROUNDMASS);SANIDINE;CRT 09-10C SAN 1 LS1;;;PRIMARY;;;;;;;;65.09;;;;18.63;;;;;;;;;;;0.0642;;0.2343;;;0.3183;;;;;;11.44;EMP (EPMA);;;3.64;;;;;;;;;;;;;;;;;;;;;;;;;;;;;;;;;;;;;;;;;;;;;;;;;;;;;;;;;;;;;;;;;;;;;;;;;;;;;;;;;;;;;;;;;;;;;;;;;;;;;;;;;;;;;;;;;;;;;;;;;;;;;;;;;;;;;;;;;;;;;;;;;;;;;;;;;;;;;;;;;;;;;;;;;;;;;;;;;;;;;;;;;;;;;32.0180453519013;1.13892602739028;;;;;;66.2112154035063;;;;;;;;;;;;;;;;;;;;;;;;;
2014;[18586] BACHMANN O. (2014);samp. CRT09-10C;;NORTH AMERICAN CORDILLERA - CENOZOIC/QUATERNARY / CORDILLERA UNITED STATES / COLORADO / SAN JUAN VOLCANIC FIELD / CARPENTER RIDGE TUFF;BACHELOR CALDERA, SOUTHERN EDGE OF CARPENTER RODGE;37.5;-106;38.5;-107.5;;;OUTCROP;;;SUBAERIAL;VOLCANIC ROCK;TRACHYDACITE;;CRYSTAL-RICH MATERIAL, WELDED TOP;27600000;27600000;OLIGOCENE;;;;;MINERAL / COMPONENT (INCL. GROUNDMASS);SANIDINE;CRT 09-10C SAN 1 LS1;;;PRIMARY;;;;;;;;65.02;;;;18.33;;;;;;;;;;;0.1115;;0.256;;;0.3273;;;;;;11;EMP (EPMA);;;3.45;;;;;;;;;;;;;;;;;;;;;;;;;;;;;;;;;;;;;;;;;;;;;;;;;;;;;;;;;;;;;;;;;;;;;;;;;;;;;;;;;;;;;;;;;;;;;;;;;;;;;;;;;;;;;;;;;;;;;;;;;;;;;;;;;;;;;;;;;;;;;;;;;;;;;;;;;;;;;;;;;;;;;;;;;;;;;;;;;;;;;;;;;;;;;31.6423735995011;1.29753691254962;;;;;;66.3826748129809;;;;;;;;;;;;;;;;;;;;;;;;;
2014;[18586] BACHMANN O. (2014);samp. CRT09-10C;;NORTH AMERICAN CORDILLERA - CENOZOIC/QUATERNARY / CORDILLERA UNITED STATES / COLORADO / SAN JUAN VOLCANIC FIELD / CARPENTER RIDGE TUFF;BACHELOR CALDERA, SOUTHERN EDGE OF CARPENTER RODGE;37.5;-106;38.5;-107.5;;;OUTCROP;;;SUBAERIAL;VOLCANIC ROCK;TRACHYDACITE;;CRYSTAL-RICH MATERIAL, WELDED TOP;27600000;27600000;OLIGOCENE;;;;;MINERAL / COMPONENT (INCL. GROUNDMASS);SANIDINE;CRT 09-10C SAN 1 LS1;;;PRIMARY;;;;;;;;65.36;;;;18.2;;;;;;;;;;;0.0834;;0.2204;;;0.3214;;;;;;11.25;EMP (EPMA);;;3.65;;;;;;;;;;;;;;;;;;;;;;;;;;;;;;;;;;;;;;;;;;;;;;;;;;;;;;;;;;;;;;;;;;;;;;;;;;;;;;;;;;;;;;;;;;;;;;;;;;;;;;;;;;;;;;;;;;;;;;;;;;;;;;;;;;;;;;;;;;;;;;;;;;;;;;;;;;;;;;;;;;;;;;;;;;;;;;;;;;;;;;;;;;;;;32.454278511725;1.08298011375346;;;;;;65.817854402769;;;;;;;;;;;;;;;;;;;;;;;;;
2014;[18586] BACHMANN O. (2014);samp. CRT09-10C;;NORTH AMERICAN CORDILLERA - CENOZOIC/QUATERNARY / CORDILLERA UNITED STATES / COLORADO / SAN JUAN VOLCANIC FIELD / CARPENTER RIDGE TUFF;BACHELOR CALDERA, SOUTHERN EDGE OF CARPENTER RODGE;37.5;-106;38.5;-107.5;;;OUTCROP;;;SUBAERIAL;VOLCANIC ROCK;TRACHYDACITE;;CRYSTAL-RICH MATERIAL, WELDED TOP;27600000;27600000;OLIGOCENE;;;;;MINERAL / COMPONENT (INCL. GROUNDMASS);SANIDINE;CRT 09-10C SAN 1 LS1;;;PRIMARY;;;;;;;;65.4;;;;18.2;;;;;;;;;;;0.097;;0.2343;;;0.1805;;;;;;11.09;EMP (EPMA);;;3.67;;;;;;;;;;;;;;;;;;;;;;;;;;;;;;;;;;;;;;;;;;;;;;;;;;;;;;;;;;;;;;;;;;;;;;;;;;;;;;;;;;;;;;;;;;;;;;;;;;;;;;;;;;;;;;;;;;;;;;;;;;;;;;;;;;;;;;;;;;;;;;;;;;;;;;;;;;;;;;;;;;;;;;;;;;;;;;;;;;;;;;;;;;;;;32.9526268442682;1.1625886056781;;;;;;65.5190551960478;;;;;;;;;;;;;;;;;;;;;;;;;
2014;[18586] BACHMANN O. (2014);samp. CRT09-10C;;NORTH AMERICAN CORDILLERA - CENOZOIC/QUATERNARY / CORDILLERA UNITED STATES / COLORADO / SAN JUAN VOLCANIC FIELD / CARPENTER RIDGE TUFF;BACHELOR CALDERA, SOUTHERN EDGE OF CARPENTER RODGE;37.5;-106;38.5;-107.5;;;OUTCROP;;;SUBAERIAL;VOLCANIC ROCK;TRACHYDACITE;;CRYSTAL-RICH MATERIAL, WELDED TOP;27600000;27600000;OLIGOCENE;;;;;MINERAL / COMPONENT (INCL. GROUNDMASS);SANIDINE;CRT 09-10C SAN 1 LS1;;;PRIMARY;;;;;;;;65.49;;;;18.28;;;;;;;;;;;0.1063;;0.2052;;;0.3202;;;;;;11.16;EMP (EPMA);;;3.43;;;;;;;;;;;;;;;;;;;;;;;;;;;;;;;;;;;;;;;;;;;;;;;;;;;;;;;;;;;;;;;;;;;;;;;;;;;;;;;;;;;;;;;;;;;;;;;;;;;;;;;;;;;;;;;;;;;;;;;;;;;;;;;;;;;;;;;;;;;;;;;;;;;;;;;;;;;;;;;;;;;;;;;;;;;;;;;;;;;;;;;;;;;;;31.2993263694747;1.03477999598172;;;;;;67.006536310428;;;;;;;;;;;;;;;;;;;;;;;;;
2014;[18586] BACHMANN O. (2014);samp. CRT09-10C;;NORTH AMERICAN CORDILLERA - CENOZOIC/QUATERNARY / CORDILLERA UNITED STATES / COLORADO / SAN JUAN VOLCANIC FIELD / CARPENTER RIDGE TUFF;BACHELOR CALDERA, SOUTHERN EDGE OF CARPENTER RODGE;37.5;-106;38.5;-107.5;;;OUTCROP;;;SUBAERIAL;VOLCANIC ROCK;TRACHYDACITE;;CRYSTAL-RICH MATERIAL, WELDED TOP;27600000;27600000;OLIGOCENE;;;;;MINERAL / COMPONENT (INCL. GROUNDMASS);SANIDINE;CRT 09-10C SAN 1 LS1;;;PRIMARY;;;;;;;;65.48;;;;18.05;;;;;;;;;;;0.111;;0.21;;;0.3531;;;;;;10.9;EMP (EPMA);;;3.6;;;;;;;;;;;;;;;;;;;;;;;;;;;;;;;;;;;;;;;;;;;;;;;;;;;;;;;;;;;;;;;;;;;;;;;;;;;;;;;;;;;;;;;;;;;;;;;;;;;;;;;;;;;;;;;;;;;;;;;;;;;;;;;;;;;;;;;;;;;;;;;;;;;;;;;;;;;;;;;;;;;;;;;;;;;;;;;;;;;;;;;;;;;;;32.8236411026065;1.05811615897851;;;;;;65.3917343909777;;;;;;;;;;;;;;;;;;;;;;;;;
2014;[18586] BACHMANN O. (2014);samp. CRT09-10C;;NORTH AMERICAN CORDILLERA - CENOZOIC/QUATERNARY / CORDILLERA UNITED STATES / COLORADO / SAN JUAN VOLCANIC FIELD / CARPENTER RIDGE TUFF;BACHELOR CALDERA, SOUTHERN EDGE OF CARPENTER RODGE;37.5;-106;38.5;-107.5;;;OUTCROP;;;SUBAERIAL;VOLCANIC ROCK;TRACHYDACITE;;CRYSTAL-RICH MATERIAL, WELDED TOP;27600000;27600000;OLIGOCENE;;;;;MINERAL / COMPONENT (INCL. GROUNDMASS);SANIDINE;CRT 09-10C SAN 1 LS1;;;PRIMARY;;;;;;;;64.68;;;;18.19;;;;;;;;;;;0.1367;;0.2294;;;0.26;;;;;;10.82;EMP (EPMA);;;3.62;;;;;;;;;;;;;;;;;;;;;;;;;;;;;;;;;;;;;;;;;;;;;;;;;;;;;;;;;;;;;;;;;;;;;;;;;;;;;;;;;;;;;;;;;;;;;;;;;;;;;;;;;;;;;;;;;;;;;;;;;;;;;;;;;;;;;;;;;;;;;;;;;;;;;;;;;;;;;;;;;;;;;;;;;;;;;;;;;;;;;;;;;;;;;33.1356846154124;1.16040766386289;;;;;;65.1668519816824;;;;;;;;;;;;;;;;;;;;;;;;;
2014;[18586] BACHMANN O. (2014);samp. CRT09-10C;;NORTH AMERICAN CORDILLERA - CENOZOIC/QUATERNARY / CORDILLERA UNITED STATES / COLORADO / SAN JUAN VOLCANIC FIELD / CARPENTER RIDGE TUFF;BACHELOR CALDERA, SOUTHERN EDGE OF CARPENTER RODGE;37.5;-106;38.5;-107.5;;;OUTCROP;;;SUBAERIAL;VOLCANIC ROCK;TRACHYDACITE;;CRYSTAL-RICH MATERIAL, WELDED TOP;27600000;27600000;OLIGOCENE;;;;;MINERAL / COMPONENT (INCL. GROUNDMASS);SANIDINE;CRT 09-10C SAN 1 LS1;;;PRIMARY;;;;;;;;65.39;;;;18.37;;;;;;;;;;;0.0975;;0.2592;;;0.3156;;;;;;10.97;EMP (EPMA);;;3.48;;;;;;;;;;;;;;;;;;;;;;;;;;;;;;;;;;;;;;;;;;;;;;;;;;;;;;;;;;;;;;;;;;;;;;;;;;;;;;;;;;;;;;;;;;;;;;;;;;;;;;;;;;;;;;;;;;;;;;;;;;;;;;;;;;;;;;;;;;;;;;;;;;;;;;;;;;;;;;;;;;;;;;;;;;;;;;;;;;;;;;;;;;;;;31.8900637988196;1.31262580781598;;;;;;66.1446732678811;;;;;;;;;;;;;;;;;;;;;;;;;
2014;[18586] BACHMANN O. (2014);samp. CRT09-10C;;NORTH AMERICAN CORDILLERA - CENOZOIC/QUATERNARY / CORDILLERA UNITED STATES / COLORADO / SAN JUAN VOLCANIC FIELD / CARPENTER RIDGE TUFF;BACHELOR CALDERA, SOUTHERN EDGE OF CARPENTER RODGE;37.5;-106;38.5;-107.5;;;OUTCROP;;;SUBAERIAL;VOLCANIC ROCK;TRACHYDACITE;;CRYSTAL-RICH MATERIAL, WELDED TOP;27600000;27600000;OLIGOCENE;;;;;MINERAL / COMPONENT (INCL. GROUNDMASS);SANIDINE;CRT 09-10C SAN 1 LS1;;;PRIMARY;;;;;;;;65.37;;;;18.5;;;;;;;;;;;0.0788;;0.2414;;;0.3467;;;;;;11.07;EMP (EPMA);;;3.52;;;;;;;;;;;;;;;;;;;;;;;;;;;;;;;;;;;;;;;;;;;;;;;;;;;;;;;;;;;;;;;;;;;;;;;;;;;;;;;;;;;;;;;;;;;;;;;;;;;;;;;;;;;;;;;;;;;;;;;;;;;;;;;;;;;;;;;;;;;;;;;;;;;;;;;;;;;;;;;;;;;;;;;;;;;;;;;;;;;;;;;;;;;;;31.955061824521;1.2110555431615;;;;;;66.1236355198305;;;;;;;;;;;;;;;;;;;;;;;;;
2014;[18586] BACHMANN O. (2014);samp. CRT09-10C;;NORTH AMERICAN CORDILLERA - CENOZOIC/QUATERNARY / CORDILLERA UNITED STATES / COLORADO / SAN JUAN VOLCANIC FIELD / CARPENTER RIDGE TUFF;BACHELOR CALDERA, SOUTHERN EDGE OF CARPENTER RODGE;37.5;-106;38.5;-107.5;;;OUTCROP;;;SUBAERIAL;VOLCANIC ROCK;TRACHYDACITE;;CRYSTAL-RICH MATERIAL, WELDED TOP;27600000;27600000;OLIGOCENE;;;;;MINERAL / COMPONENT (INCL. GROUNDMASS);SANIDINE;CRT 09-10C SAN 1 LS1;;;PRIMARY;;;;;;;;65.26;;;;18.18;;;;;;;;;;;0.0764;;0.1977;;;0.4399;;;;;;11.01;EMP (EPMA);;;3.62;;;;;;;;;;;;;;;;;;;;;;;;;;;;;;;;;;;;;;;;;;;;;;;;;;;;;;;;;;;;;;;;;;;;;;;;;;;;;;;;;;;;;;;;;;;;;;;;;;;;;;;;;;;;;;;;;;;;;;;;;;;;;;;;;;;;;;;;;;;;;;;;;;;;;;;;;;;;;;;;;;;;;;;;;;;;;;;;;;;;;;;;;;;;;32.6925104235852;0.986679640894636;;;;;;65.4243057968839;;;;;;;;;;;;;;;;;;;;;;;;;
2014;[18586] BACHMANN O. (2014);samp. CRT09-10C;;NORTH AMERICAN CORDILLERA - CENOZOIC/QUATERNARY / CORDILLERA UNITED STATES / COLORADO / SAN JUAN VOLCANIC FIELD / CARPENTER RIDGE TUFF;BACHELOR CALDERA, SOUTHERN EDGE OF CARPENTER RODGE;37.5;-106;38.5;-107.5;;;OUTCROP;;;SUBAERIAL;VOLCANIC ROCK;TRACHYDACITE;;CRYSTAL-RICH MATERIAL, WELDED TOP;27600000;27600000;OLIGOCENE;;;;;MINERAL / COMPONENT (INCL. GROUNDMASS);SANIDINE;CRT 09-10C SAN 1 LS1;;;PRIMARY;;;;;;;;65.14;;;;18.48;;;;;;;;;;;0.067;;0.1636;;;0.5039;;;;;;11.11;EMP (EPMA);;;3.82;;;;;;;;;;;;;;;;;;;;;;;;;;;;;;;;;;;;;;;;;;;;;;;;;;;;;;;;;;;;;;;;;;;;;;;;;;;;;;;;;;;;;;;;;;;;;;;;;;;;;;;;;;;;;;;;;;;;;;;;;;;;;;;;;;;;;;;;;;;;;;;;;;;;;;;;;;;;;;;;;;;;;;;;;;;;;;;;;;;;;;;;;;;;;33.7031018980815;0.797663293365552;;;;;;64.4959840302148;;;;;;;;;;;;;;;;;;;;;;;;;
2014;[18586] BACHMANN O. (2014);samp. CRT09-10C;;NORTH AMERICAN CORDILLERA - CENOZOIC/QUATERNARY / CORDILLERA UNITED STATES / COLORADO / SAN JUAN VOLCANIC FIELD / CARPENTER RIDGE TUFF;BACHELOR CALDERA, SOUTHERN EDGE OF CARPENTER RODGE;37.5;-106;38.5;-107.5;;;OUTCROP;;;SUBAERIAL;VOLCANIC ROCK;TRACHYDACITE;;CRYSTAL-RICH MATERIAL, WELDED TOP;27600000;27600000;OLIGOCENE;;;;;MINERAL / COMPONENT (INCL. GROUNDMASS);SANIDINE;CRT 09-10C SAN 1 LS1;;;PRIMARY;;;;;;;;65.09;;;;18.36;;;;;;;;;;;0.0623;;0.2701;;;0.8879;;;;;;11.07;EMP (EPMA);;;3.46;;;;;;;;;;;;;;;;;;;;;;;;;;;;;;;;;;;;;;;;;;;;;;;;;;;;;;;;;;;;;;;;;;;;;;;;;;;;;;;;;;;;;;;;;;;;;;;;;;;;;;;;;;;;;;;;;;;;;;;;;;;;;;;;;;;;;;;;;;;;;;;;;;;;;;;;;;;;;;;;;;;;;;;;;;;;;;;;;;;;;;;;;;;;;31.1895537209324;1.3455115912921;;;;;;65.6587766243871;;;;;;;;;;;;;;;;;;;;;;;;;
2014;[18586] BACHMANN O. (2014);samp. CRT09-10C;;NORTH AMERICAN CORDILLERA - CENOZOIC/QUATERNARY / CORDILLERA UNITED STATES / COLORADO / SAN JUAN VOLCANIC FIELD / CARPENTER RIDGE TUFF;BACHELOR CALDERA, SOUTHERN EDGE OF CARPENTER RODGE;37.5;-106;38.5;-107.5;;;OUTCROP;;;SUBAERIAL;VOLCANIC ROCK;TRACHYDACITE;;CRYSTAL-RICH MATERIAL, WELDED TOP;27600000;27600000;OLIGOCENE;;;;;MINERAL / COMPONENT (INCL. GROUNDMASS);SANIDINE;CRT 09-10C SAN 1 LS1;;;PRIMARY;;;;;;;;64.6;;;;18.31;;;;;;;;;;;0.1114;;0.2944;;;0.8104;;;;;;11.27;EMP (EPMA);;;3.45;;;;;;;;;;;;;;;;;;;;;;;;;;;;;;;;;;;;;;;;;;;;;;;;;;;;;;;;;;;;;;;;;;;;;;;;;;;;;;;;;;;;;;;;;;;;;;;;;;;;;;;;;;;;;;;;;;;;;;;;;;;;;;;;;;;;;;;;;;;;;;;;;;;;;;;;;;;;;;;;;;;;;;;;;;;;;;;;;;;;;;;;;;;;;30.773365070475;1.4511873934886;;;;;;66.1442221831398;;;;;;;;;;;;;;;;;;;;;;;;;
2014;[18586] BACHMANN O. (2014);samp. CRT09-10C;;NORTH AMERICAN CORDILLERA - CENOZOIC/QUATERNARY / CORDILLERA UNITED STATES / COLORADO / SAN JUAN VOLCANIC FIELD / CARPENTER RIDGE TUFF;BACHELOR CALDERA, SOUTHERN EDGE OF CARPENTER RODGE;37.5;-106;38.5;-107.5;;;OUTCROP;;;SUBAERIAL;VOLCANIC ROCK;TRACHYDACITE;;CRYSTAL-RICH MATERIAL, WELDED TOP;27600000;27600000;OLIGOCENE;;;;;MINERAL / COMPONENT (INCL. GROUNDMASS);SANIDINE;CRT 09-10C SAN 1 LS1;;;PRIMARY;;;;;;;;64.86;;;;17.88;;;;;;;;;;;0.0979;;0.284;;;0.7466;;;;;;11.02;EMP (EPMA);;;3.58;;;;;;;;;;;;;;;;;;;;;;;;;;;;;;;;;;;;;;;;;;;;;;;;;;;;;;;;;;;;;;;;;;;;;;;;;;;;;;;;;;;;;;;;;;;;;;;;;;;;;;;;;;;;;;;;;;;;;;;;;;;;;;;;;;;;;;;;;;;;;;;;;;;;;;;;;;;;;;;;;;;;;;;;;;;;;;;;;;;;;;;;;;;;;32.0893357709536;1.40677887601379;;;;;;64.9937206233664;;;;;;;;;;;;;;;;;;;;;;;;;