Year;CITATION;SAMPLE NAME;UNIQUE_ID;LOCATION;LOCATION COMMENT;LATITUDE (MIN.);LONGITUDE (MIN.);LATITUDE (MAX.);LONGITUDE (MAX.);ELEVATION (MIN.);ELEVATION (MAX.);SAMPLING TECHNIQUE;DRILLING DEPTH (MIN.);DRILLING DEPTH (MAX.);LAND/SEA (SAMPLING);ROCK TYPE;ROCK NAME;ROCK TEXTURE;SAMPLE COMMENT;AGE (MIN.);AGE (MAX.);GEOLOGICAL AGE;GEOLOGICAL AGE PREFIX;ERUPTION YEAR;ALTERATION;ALTERATION TYPE;TYPE OF MATERIAL;MINERAL / COMPONENT;SPOT (MINERAL);CRYSTAL;RIM / CORE (MINERAL GRAINS);PRIMARY/SECONDARY;INCLUSION TYPE;SPOT (INCLUSION);MINERAL (INCLUSION);RIM / CORE (INCLUSION);HOSTMINERAL (INCLUSION);HEATING;HEATING TEMPERATURE (?C);SIO2(WT%);TIO2(WT%);ZRO2(WT%);B2O3(WT%);AL2O3(WT%);CR2O3(WT%);LA2O3(WT%);CE2O3(WT%);Y2O3(WT%);V2O3(WT%);NB2O3(WT%);TA2O5(WT%);WO3(WT%);FE2O3T(WT%);FE2O3(WT%);FEOT(WT%);FEO(WT%);CAO(WT%);MGO(WT%);MNO(WT%);BAO(WT%);SRO(WT%);NIO(WT%);ZNO(WT%);CS2O(WT%);RB2O(WT%);K2O(WT%);;;;NA2O(WT%);P2O5(WT%);H2O(WT%);;;;H2OP(WT%);H2OM(WT%);CO2(WT%);C(WT%);F(WT%);CL(WT%);SO2(WT%);SO3(WT%);S(WT%);LOI(WT%);AL(WT%);TI(WT%);FE(WT%);MG(WT%);CA(WT%);K(WT%);NA(WT%);LI(PPM);BE(PPM);B(PPM);C(PPM);F(PPM);NA(PPM);MG(PPM);AL(PPM);P(PPM);S(PPM);CL(PPM);AR40(AT/G);AR40(CCMSTP/G);AR40(MOL/G);AR40(PPB);K(PPM);CA(PPM);SC(PPM);;;;TI(PPM);;;;V(PPM);CR(PPM);MN(PPM);FE(PPM);CO(PPM);NI(PPM);CU(PPM);ZN(PPM);GA(PPM);GE(PPM);AS(PPM);SE(PPM);BR(PPM);RB(PPM): altern. values or methods;;;;SR(PPM): altern. values or methods;;;;Y(PPM): altern. values or methods;;;;ZR(PPM): altern. values or methods;;;;NB(PPM): altern. values or methods;;;;MO(PPM): altern. values or methods;;;;AG(PPM);CD(PPM);IN(PPM);SN(PPM);SB(PPM);TE(PPM);CS(PPM);BA(PPM): altern. values or methods;;;;LA(PPM): altern. values or methods;;;;CE(PPM): altern. values or methods;;;;PR(PPM);ND(PPM): altern. values or methods;;;;SM(PPM): altern. values or methods;;;;EU(PPM);GD(PPM);TB(PPM);DY(PPM);HO(PPM);ER(PPM);TM(PPM);YB(PPM);LU(PPM);HF(PPM);TA(PPM);W(PPM);RE(PPM);AU(PPM);AU(PPB);HG(PPM);HG(PPB);TL(PPM);PB(PPM): altern. values or methods;;;;PB206(PPM);BI(PPM);TH(PPM): altern. values or methods;;;;U(PPM);ND143_ND144;ND143_ND144_INI;EPSILON_ND;EPSILON_ND_INI;SM147_ND144;SR87_SR86;SR87_SR86_INI;EPSILON_SR;EPSILON_SR_INI;RB87_SR86;PB206_PB204;PB206_PB204_INI;PB206_PB207;PB206_PB208;PB207_PB204;PB207_PB204_INI;PB207_PB206;PB208_PB204;PB208_PB204_INI;PB208_PB206;HF176_HF177;HF176_HF177_INI;EPSILON_HF_INI;LU176_HF177;YB176_HF177;AR36_AR39;AR36_AR40;AR37_AR39;AR38_AR39;AR39_AR40;AR40_AR36;AR40_AR39;PB206_U238;PB207_U235;PB208_TH232;TH232_PB204;TH232_U238;U235_PB204;U238_PB204;U238_PB206;D7LI(VS LSVEC);D18O(PER MIL);D18O(VS SMOW);D18O(VS VSMOW);D56FE(VS IRMM-014);D57FE(VS IRMM-014);DD(VS SMOW);ALBITE(MOL%);ANORTHITE(MOL%);CA OLIVINE(MOL%);ENSTATITE(MOL%);FAYALITE(MOL%);FORSTERITE(MOL%);FERROSILITE(MOL%);ORTHOCLASE(MOL%);TEPHROITE(MOL%);ULVOSPINEL(MOL%);WOLLASTONITE(MOL%);AGE(KA): altern. values or methods;;;;AGE(MA): altern. values or methods;;;;;;;;AGE_PB207_PB206(MA);AGE_PB207_U235(MA);AGE_PB206_U238(MA): altern. values or methods;;;;;;AGE_PB208_TH232(MA);
2014;[18350] CHEN LONG(2014)  [GeoReM [8456] ];samp. 09LZ80;;CENTRAL ASIAN FOLDBELT - MESOZOIC / CHINA - MESOZOIC / ANHUI PROVINCE / SHUANGMIAO FORMATION;LUZONG AREA;30.8;117.3;31.1;117.6;;;OUTCROP;;;SUBAERIAL;VOLCANIC ROCK;TRACHYDACITE;PORPHYRITIC;;;;CRETACEOUS;LOWER;;;;MINERAL / COMPONENT (INCL. GROUNDMASS);ZIRCON;;;;PRIMARY;;;;;;;;;;;;;;;;;;;;;;;;;;;;;;;;;;;;;;;;;;;;;;;;;;;;;;;;;;;;;;;;;;;;;;;;;;;;;;;;;;;;;;;;;;;;;;;;;;;;;;;;;;;;;;;;;;;;;;;;;;;;;;;;;;;;;;;;;;;;;;;;;;;;;;;;;;;;;;;;;;;;;;;;;5.41;ICPMS_LA;;;;;254;ICPMS_LA;;;185;;;;;;;;;;;;;;;;;;;;;;;;;;;;;;;;;;;;;;;;;;;;;;;;;;;;;;;;;;;;;;;;;;;;;;;;143;132;PB206_U238 AGE;;;;;;
2014;[18350] CHEN LONG(2014)  [GeoReM [8456] ];samp. 09LZ80;;CENTRAL ASIAN FOLDBELT - MESOZOIC / CHINA - MESOZOIC / ANHUI PROVINCE / SHUANGMIAO FORMATION;LUZONG AREA;30.8;117.3;31.1;117.6;;;OUTCROP;;;SUBAERIAL;VOLCANIC ROCK;TRACHYDACITE;PORPHYRITIC;;;;CRETACEOUS;LOWER;;;;MINERAL / COMPONENT (INCL. GROUNDMASS);ZIRCON;;;;PRIMARY;;;;;;;;;;;;;;;;;;;;;;;;;;;;;;;;;;;;;;;;;;;;;;;;;;;;;;;;;;;;;;;;;;;;;;;;;;;;;;;;;;;;;;;;;;;;;;;;;;;;;;;;;;;;;;;;;;;;;;;;;;;;;;;;;;;;;;;;;;;;;;;;;;;;;;;;;;;;;;;;;;;;;;;;;5.29;ICPMS_LA;;;;;299;ICPMS_LA;;;159;;;;;;;;;;;;;;;;;;;;;;;;;;;;;;;;;;;;;;;;;;;;;;;;;;;;;;;;;;;;;;;;;;;;;;;;148;135;PB206_U238 AGE;;;;;;
2014;[18350] CHEN LONG(2014)  [GeoReM [8456] ];samp. 09LZ80;;CENTRAL ASIAN FOLDBELT - MESOZOIC / CHINA - MESOZOIC / ANHUI PROVINCE / SHUANGMIAO FORMATION;LUZONG AREA;30.8;117.3;31.1;117.6;;;OUTCROP;;;SUBAERIAL;VOLCANIC ROCK;TRACHYDACITE;PORPHYRITIC;;;;CRETACEOUS;LOWER;;;;MINERAL / COMPONENT (INCL. GROUNDMASS);ZIRCON;;;;PRIMARY;;;;;;;;;;;;;;;;;;;;;;;;;;;;;;;;;;;;;;;;;;;;;;;;;;;;;;;;;;;;;;;;;;;;;;;;;;;;;;;;;;;;;;;;;;;;;;;;;;;;;;;;;;;;;;;;;;;;;;;;;;;;;;;;;;;;;;;;;;;;;;;;;;;;;;;;;;;;;;;;;;;;;;;;;5.72;ICPMS_LA;;;;;311;ICPMS_LA;;;162;;;;;;;;;;;;;;;;;;;;;;;;;;;;;;;;;;;;;;;;;;;;;;;;;;;;;;;;;;;;;;;;;;;;;;;;141;132;PB206_U238 AGE;;;;;;
2014;[18350] CHEN LONG(2014)  [GeoReM [8456] ];samp. 09LZ80;;CENTRAL ASIAN FOLDBELT - MESOZOIC / CHINA - MESOZOIC / ANHUI PROVINCE / SHUANGMIAO FORMATION;LUZONG AREA;30.8;117.3;31.1;117.6;;;OUTCROP;;;SUBAERIAL;VOLCANIC ROCK;TRACHYDACITE;PORPHYRITIC;;;;CRETACEOUS;LOWER;;;;MINERAL / COMPONENT (INCL. GROUNDMASS);ZIRCON;;;;PRIMARY;;;;;;;;;;;;;;;;;;;;;;;;;;;;;;;;;;;;;;;;;;;;;;;;;;;;;;;;;;;;;;;;;;;;;;;;;;;;;;;;;;;;;;;;;;;;;;;;;;;;;;;;;;;;;;;;;;;;;;;;;;;;;;;;;;;;;;;;;;;;;;;;;;;;;;;;;;;;;;;;;;;;;;;;;6.42;ICPMS_LA;;;;;332;ICPMS_LA;;;178;;;;;;;;;;;;;;;;;;;;;;;;;;;;;;;;;;;;;;;;;;;;;;;;;;;;;;;;;;;;;;;;;;;;;;;;154;135;PB206_U238 AGE;;;;;;
2014;[18350] CHEN LONG(2014)  [GeoReM [8456] ];samp. 09LZ80;;CENTRAL ASIAN FOLDBELT - MESOZOIC / CHINA - MESOZOIC / ANHUI PROVINCE / SHUANGMIAO FORMATION;LUZONG AREA;30.8;117.3;31.1;117.6;;;OUTCROP;;;SUBAERIAL;VOLCANIC ROCK;TRACHYDACITE;PORPHYRITIC;;;;CRETACEOUS;LOWER;;;;MINERAL / COMPONENT (INCL. GROUNDMASS);ZIRCON;;;;PRIMARY;;;;;;;;;;;;;;;;;;;;;;;;;;;;;;;;;;;;;;;;;;;;;;;;;;;;;;;;;;;;;;;;;;;;;;;;;;;;;;;;;;;;;;;;;;;;;;;;;;;;;;;;;;;;;;;;;;;;;;;;;;;;;;;;;;;;;;;;;;;;;;;;;;;;;;;;;;;;;;;;;;;;;;;;;4.76;ICPMS_LA;;;;;230;ICPMS_LA;;;144;;;;;;;;;;;;;;;;;;;;;;;;;;;;;;;;;;;;;;;;;;;;;;;;;;;;;;;;;;;;;;;;;;;;;;;;141;132;PB206_U238 AGE;;;;;;
2014;[18350] CHEN LONG(2014)  [GeoReM [8456] ];samp. 09LZ80;;CENTRAL ASIAN FOLDBELT - MESOZOIC / CHINA - MESOZOIC / ANHUI PROVINCE / SHUANGMIAO FORMATION;LUZONG AREA;30.8;117.3;31.1;117.6;;;OUTCROP;;;SUBAERIAL;VOLCANIC ROCK;TRACHYDACITE;PORPHYRITIC;;;;CRETACEOUS;LOWER;;;;MINERAL / COMPONENT (INCL. GROUNDMASS);ZIRCON;;;;PRIMARY;;;;;;;;;;;;;;;;;;;;;;;;;;;;;;;;;;;;;;;;;;;;;;;;;;;;;;;;;;;;;;;;;;;;;;;;;;;;;;;;;;;;;;;;;;;;;;;;;;;;;;;;;;;;;;;;;;;;;;;;;;;;;;;;;;;;;;;;;;;;;;;;;;;;;;;;;;;;;;;;;;;;;;;;;6.53;ICPMS_LA;;;;;311;ICPMS_LA;;;168;;;;;;;;;;;;;;;;;;;;;;;;;;;;;;;;;;;;;;;;;;;;;;;;;;;;;;;;;;;;;;;;;;;;;;;;144;127;PB206_U238 AGE;;;;;;
2014;[18350] CHEN LONG(2014)  [GeoReM [8456] ];samp. 09LZ80;;CENTRAL ASIAN FOLDBELT - MESOZOIC / CHINA - MESOZOIC / ANHUI PROVINCE / SHUANGMIAO FORMATION;LUZONG AREA;30.8;117.3;31.1;117.6;;;OUTCROP;;;SUBAERIAL;VOLCANIC ROCK;TRACHYDACITE;PORPHYRITIC;;;;CRETACEOUS;LOWER;;;;MINERAL / COMPONENT (INCL. GROUNDMASS);ZIRCON;;;;PRIMARY;;;;;;;;;;;;;;;;;;;;;;;;;;;;;;;;;;;;;;;;;;;;;;;;;;;;;;;;;;;;;;;;;;;;;;;;;;;;;;;;;;;;;;;;;;;;;;;;;;;;;;;;;;;;;;;;;;;;;;;;;;;;;;;;;;;;;;;;;;;;;;;;;;;;;;;;;;;;;;;;;;;;;;;;;5.91;ICPMS_LA;;;;;306;ICPMS_LA;;;175;;;;;;;;;;;;;;;;;;;;;;;;;;;;;;;;;;;;;;;;;;;;;;;;;;;;;;;;;;;;;;;;;;;;;;;;126;133;PB206_U238 AGE;;;;;;
2014;[18350] CHEN LONG(2014)  [GeoReM [8456] ];samp. 09LZ80;;CENTRAL ASIAN FOLDBELT - MESOZOIC / CHINA - MESOZOIC / ANHUI PROVINCE / SHUANGMIAO FORMATION;LUZONG AREA;30.8;117.3;31.1;117.6;;;OUTCROP;;;SUBAERIAL;VOLCANIC ROCK;TRACHYDACITE;PORPHYRITIC;;;;CRETACEOUS;LOWER;;;;MINERAL / COMPONENT (INCL. GROUNDMASS);ZIRCON;;;;PRIMARY;;;;;;;;;;;;;;;;;;;;;;;;;;;;;;;;;;;;;;;;;;;;;;;;;;;;;;;;;;;;;;;;;;;;;;;;;;;;;;;;;;;;;;;;;;;;;;;;;;;;;;;;;;;;;;;;;;;;;;;;;;;;;;;;;;;;;;;;;;;;;;;;;;;;;;;;;;;;;;;;;;;;;;;;;9.98;ICPMS_LA;;;;;657;ICPMS_LA;;;259;;;;;;;;;;;;;;;;;;;;;;;;;;;;;;;;;;;;;;;;;;;;;;;;;;;;;;;;;;;;;;;;;;;;;;;;142;134;PB206_U238 AGE;;;;;;
2014;[18350] CHEN LONG(2014)  [GeoReM [8456] ];samp. 09LZ80;;CENTRAL ASIAN FOLDBELT - MESOZOIC / CHINA - MESOZOIC / ANHUI PROVINCE / SHUANGMIAO FORMATION;LUZONG AREA;30.8;117.3;31.1;117.6;;;OUTCROP;;;SUBAERIAL;VOLCANIC ROCK;TRACHYDACITE;PORPHYRITIC;;;;CRETACEOUS;LOWER;;;;MINERAL / COMPONENT (INCL. GROUNDMASS);ZIRCON;;;;PRIMARY;;;;;;;;;;;;;;;;;;;;;;;;;;;;;;;;;;;;;;;;;;;;;;;;;;;;;;;;;;;;;;;;;;;;;;;;;;;;;;;;;;;;;;;;;;;;;;;;;;;;;;;;;;;;;;;;;;;;;;;;;;;;;;;;;;;;;;;;;;;;;;;;;;;;;;;;;;;;;;;;;;;;;;;;;7.16;ICPMS_LA;;;;;399;ICPMS_LA;;;185;;;;;;;;;;;;;;;;;;;;;;;;;;;;;;;;;;;;;;;;;;;;;;;;;;;;;;;;;;;;;;;;;;;;;;;;137;141;PB206_U238 AGE;;;;;;
2014;[18350] CHEN LONG(2014)  [GeoReM [8456] ];samp. 09LZ26;;CENTRAL ASIAN FOLDBELT - MESOZOIC / CHINA - MESOZOIC / ANHUI PROVINCE / FUSHAN FORMATION;LUZONG AREA;30.8;117.3;31.1;117.6;;;OUTCROP;;;SUBAERIAL;VOLCANIC ROCK;TRACHYDACITE;PORPHYRITIC;;;;CRETACEOUS;LOWER;;;;MINERAL / COMPONENT (INCL. GROUNDMASS);ZIRCON;;;;PRIMARY;;;;;;;;;;;;;;;;;;;;;;;;;;;;;;;;;;;;;;;;;;;;;;;;;;;;;;;;;;;;;;;;;;;;;;;;;;;;;;;;;;;;;;;;;;;;;;;;;;;;;;;;;;;;;;;;;;;;;;;;;;;;;;;;;;;;;;;;;;;;;;;;;;;;;;;;;;;;;;;;;;;;;;;;;;;;;;;;;;;;;;;;;;;;;;;;;;;;;;;;0.282734;;;0.00394;0.108981;;;;;;;;;;;;;;;;;;;;;;;;;;;;;;;;;;;;;;;;;;;;;;;;;;;;;;;
2014;[18350] CHEN LONG(2014)  [GeoReM [8456] ];samp. 09LZ26;;CENTRAL ASIAN FOLDBELT - MESOZOIC / CHINA - MESOZOIC / ANHUI PROVINCE / FUSHAN FORMATION;LUZONG AREA;30.8;117.3;31.1;117.6;;;OUTCROP;;;SUBAERIAL;VOLCANIC ROCK;TRACHYDACITE;PORPHYRITIC;;;;CRETACEOUS;LOWER;;;;MINERAL / COMPONENT (INCL. GROUNDMASS);ZIRCON;;;;PRIMARY;;;;;;;;;;;;;;;;;;;;;;;;;;;;;;;;;;;;;;;;;;;;;;;;;;;;;;;;;;;;;;;;;;;;;;;;;;;;;;;;;;;;;;;;;;;;;;;;;;;;;;;;;;;;;;;;;;;;;;;;;;;;;;;;;;;;;;;;;;;;;;;;;;;;;;;;;;;;;;;;;;;;;;;;;;;;;;;;;;;;;;;;;;;;;;;;;;;;;;;;0.282714;;;0.001537;0.041799;;;;;;;;;;;;;;;;;;;;;;;;;;;;;;;;;;;;;;;;;;;;;;;;;;;;;;;
2014;[18350] CHEN LONG(2014)  [GeoReM [8456] ];samp. 09LZ26;;CENTRAL ASIAN FOLDBELT - MESOZOIC / CHINA - MESOZOIC / ANHUI PROVINCE / FUSHAN FORMATION;LUZONG AREA;30.8;117.3;31.1;117.6;;;OUTCROP;;;SUBAERIAL;VOLCANIC ROCK;TRACHYDACITE;PORPHYRITIC;;;;CRETACEOUS;LOWER;;;;MINERAL / COMPONENT (INCL. GROUNDMASS);ZIRCON;;;;PRIMARY;;;;;;;;;;;;;;;;;;;;;;;;;;;;;;;;;;;;;;;;;;;;;;;;;;;;;;;;;;;;;;;;;;;;;;;;;;;;;;;;;;;;;;;;;;;;;;;;;;;;;;;;;;;;;;;;;;;;;;;;;;;;;;;;;;;;;;;;;;;;;;;;;;;;;;;;;;;;;;;;;;;;;;;;;;;;;;;;;;;;;;;;;;;;;;;;;;;;;;;;0.282612;;;0.003539;0.111458;;;;;;;;;;;;;;;;;;;;;;;;;;;;;;;;;;;;;;;;;;;;;;;;;;;;;;;
2014;[18350] CHEN LONG(2014)  [GeoReM [8456] ];samp. 09LZ26;;CENTRAL ASIAN FOLDBELT - MESOZOIC / CHINA - MESOZOIC / ANHUI PROVINCE / FUSHAN FORMATION;LUZONG AREA;30.8;117.3;31.1;117.6;;;OUTCROP;;;SUBAERIAL;VOLCANIC ROCK;TRACHYDACITE;PORPHYRITIC;;;;CRETACEOUS;LOWER;;;;MINERAL / COMPONENT (INCL. GROUNDMASS);ZIRCON;;;;PRIMARY;;;;;;;;;;;;;;;;;;;;;;;;;;;;;;;;;;;;;;;;;;;;;;;;;;;;;;;;;;;;;;;;;;;;;;;;;;;;;;;;;;;;;;;;;;;;;;;;;;;;;;;;;;;;;;;;;;;;;;;;;;;;;;;;;;;;;;;;;;;;;;;;;;;;;;;;;;;;;;;;;;;;;;;;;;;;;;;;;;;;;;;;;;;;;;;;;;;;;;;;0.282767;;;0.00508;0.141454;;;;;;;;;;;;;;;;;;;;;;;;;;;;;;;;;;;;;;;;;;;;;;;;;;;;;;;
2014;[18350] CHEN LONG(2014)  [GeoReM [8456] ];samp. 09LZ26;;CENTRAL ASIAN FOLDBELT - MESOZOIC / CHINA - MESOZOIC / ANHUI PROVINCE / FUSHAN FORMATION;LUZONG AREA;30.8;117.3;31.1;117.6;;;OUTCROP;;;SUBAERIAL;VOLCANIC ROCK;TRACHYDACITE;PORPHYRITIC;;;;CRETACEOUS;LOWER;;;;MINERAL / COMPONENT (INCL. GROUNDMASS);ZIRCON;;;;PRIMARY;;;;;;;;;;;;;;;;;;;;;;;;;;;;;;;;;;;;;;;;;;;;;;;;;;;;;;;;;;;;;;;;;;;;;;;;;;;;;;;;;;;;;;;;;;;;;;;;;;;;;;;;;;;;;;;;;;;;;;;;;;;;;;;;;;;;;;;;;;;;;;;;;;;;;;;;;;;;;;;;;;;;;;;;;;;;;;;;;;;;;;;;;;;;;;;;;;;;;;;;0.282772;;;0.003268;0.081745;;;;;;;;;;;;;;;;;;;;;;;;;;;;;;;;;;;;;;;;;;;;;;;;;;;;;;;
2014;[18350] CHEN LONG(2014)  [GeoReM [8456] ];samp. 09LZ26;;CENTRAL ASIAN FOLDBELT - MESOZOIC / CHINA - MESOZOIC / ANHUI PROVINCE / FUSHAN FORMATION;LUZONG AREA;30.8;117.3;31.1;117.6;;;OUTCROP;;;SUBAERIAL;VOLCANIC ROCK;TRACHYDACITE;PORPHYRITIC;;;;CRETACEOUS;LOWER;;;;MINERAL / COMPONENT (INCL. GROUNDMASS);ZIRCON;;;;PRIMARY;;;;;;;;;;;;;;;;;;;;;;;;;;;;;;;;;;;;;;;;;;;;;;;;;;;;;;;;;;;;;;;;;;;;;;;;;;;;;;;;;;;;;;;;;;;;;;;;;;;;;;;;;;;;;;;;;;;;;;;;;;;;;;;;;;;;;;;;;;;;;;;;;;;;;;;;;;;;;;;;;;;;;;;;;;;;;;;;;;;;;;;;;;;;;;;;;;;;;;;;0.282727;;;0.007674;0.213556;;;;;;;;;;;;;;;;;;;;;;;;;;;;;;;;;;;;;;;;;;;;;;;;;;;;;;;
2014;[18350] CHEN LONG(2014)  [GeoReM [8456] ];samp. 09LZ26;;CENTRAL ASIAN FOLDBELT - MESOZOIC / CHINA - MESOZOIC / ANHUI PROVINCE / FUSHAN FORMATION;LUZONG AREA;30.8;117.3;31.1;117.6;;;OUTCROP;;;SUBAERIAL;VOLCANIC ROCK;TRACHYDACITE;PORPHYRITIC;;;;CRETACEOUS;LOWER;;;;MINERAL / COMPONENT (INCL. GROUNDMASS);ZIRCON;;;;PRIMARY;;;;;;;;;;;;;;;;;;;;;;;;;;;;;;;;;;;;;;;;;;;;;;;;;;;;;;;;;;;;;;;;;;;;;;;;;;;;;;;;;;;;;;;;;;;;;;;;;;;;;;;;;;;;;;;;;;;;;;;;;;;;;;;;;;;;;;;;;;;;;;;;;;;;;;;;;;;;;;;;;;;;;;;;;;;;;;;;;;;;;;;;;;;;;;;;;;;;;;;;0.282697;;;0.003392;0.085324;;;;;;;;;;;;;;;;;;;;;;;;;;;;;;;;;;;;;;;;;;;;;;;;;;;;;;;
2014;[18350] CHEN LONG(2014)  [GeoReM [8456] ];samp. 09LZ26;;CENTRAL ASIAN FOLDBELT - MESOZOIC / CHINA - MESOZOIC / ANHUI PROVINCE / FUSHAN FORMATION;LUZONG AREA;30.8;117.3;31.1;117.6;;;OUTCROP;;;SUBAERIAL;VOLCANIC ROCK;TRACHYDACITE;PORPHYRITIC;;;;CRETACEOUS;LOWER;;;;MINERAL / COMPONENT (INCL. GROUNDMASS);ZIRCON;;;;PRIMARY;;;;;;;;;;;;;;;;;;;;;;;;;;;;;;;;;;;;;;;;;;;;;;;;;;;;;;;;;;;;;;;;;;;;;;;;;;;;;;;;;;;;;;;;;;;;;;;;;;;;;;;;;;;;;;;;;;;;;;;;;;;;;;;;;;;;;;;;;;;;;;;;;;;;;;;;;;;;;;;;;;;;;;;;;;;;;;;;;;;;;;;;;;;;;;;;;;;;;;;;0.282742;;;0.002773;0.072173;;;;;;;;;;;;;;;;;;;;;;;;;;;;;;;;;;;;;;;;;;;;;;;;;;;;;;;
2014;[18350] CHEN LONG(2014)  [GeoReM [8456] ];samp. 09LZ26;;CENTRAL ASIAN FOLDBELT - MESOZOIC / CHINA - MESOZOIC / ANHUI PROVINCE / FUSHAN FORMATION;LUZONG AREA;30.8;117.3;31.1;117.6;;;OUTCROP;;;SUBAERIAL;VOLCANIC ROCK;TRACHYDACITE;PORPHYRITIC;;;;CRETACEOUS;LOWER;;;;MINERAL / COMPONENT (INCL. GROUNDMASS);ZIRCON;;;;PRIMARY;;;;;;;;;;;;;;;;;;;;;;;;;;;;;;;;;;;;;;;;;;;;;;;;;;;;;;;;;;;;;;;;;;;;;;;;;;;;;;;;;;;;;;;;;;;;;;;;;;;;;;;;;;;;;;;;;;;;;;;;;;;;;;;;;;;;;;;;;;;;;;;;;;;;;;;;;;;;;;;;;;;;;;;;;;;;;;;;;;;;;;;;;;;;;;;;;;;;;;;;0.282663;;;0.001984;0.061135;;;;;;;;;;;;;;;;;;;;;;;;;;;;;;;;;;;;;;;;;;;;;;;;;;;;;;;
2014;[18350] CHEN LONG(2014)  [GeoReM [8456] ];samp. 09LZ26;;CENTRAL ASIAN FOLDBELT - MESOZOIC / CHINA - MESOZOIC / ANHUI PROVINCE / FUSHAN FORMATION;LUZONG AREA;30.8;117.3;31.1;117.6;;;OUTCROP;;;SUBAERIAL;VOLCANIC ROCK;TRACHYDACITE;PORPHYRITIC;;;;CRETACEOUS;LOWER;;;;MINERAL / COMPONENT (INCL. GROUNDMASS);ZIRCON;;;;PRIMARY;;;;;;;;;;;;;;;;;;;;;;;;;;;;;;;;;;;;;;;;;;;;;;;;;;;;;;;;;;;;;;;;;;;;;;;;;;;;;;;;;;;;;;;;;;;;;;;;;;;;;;;;;;;;;;;;;;;;;;;;;;;;;;;;;;;;;;;;;;;;;;;;;;;;;;;;;;;;;;;;;;;;;;;;;;;;;;;;;;;;;;;;;;;;;;;;;;;;;;;;0.282682;;;0.003364;0.096476;;;;;;;;;;;;;;;;;;;;;;;;;;;;;;;;;;;;;;;;;;;;;;;;;;;;;;;
2014;[18350] CHEN LONG(2014)  [GeoReM [8456] ];samp. 09LZ26;;CENTRAL ASIAN FOLDBELT - MESOZOIC / CHINA - MESOZOIC / ANHUI PROVINCE / FUSHAN FORMATION;LUZONG AREA;30.8;117.3;31.1;117.6;;;OUTCROP;;;SUBAERIAL;VOLCANIC ROCK;TRACHYDACITE;PORPHYRITIC;;;;CRETACEOUS;LOWER;;;;MINERAL / COMPONENT (INCL. GROUNDMASS);ZIRCON;;;;PRIMARY;;;;;;;;;;;;;;;;;;;;;;;;;;;;;;;;;;;;;;;;;;;;;;;;;;;;;;;;;;;;;;;;;;;;;;;;;;;;;;;;;;;;;;;;;;;;;;;;;;;;;;;;;;;;;;;;;;;;;;;;;;;;;;;;;;;;;;;;;;;;;;;;;;;;;;;;;;;;;;;;;;;;;;;;;;;;;;;;;;;;;;;;;;;;;;;;;;;;;;;;0.282661;;;0.002933;0.089616;;;;;;;;;;;;;;;;;;;;;;;;;;;;;;;;;;;;;;;;;;;;;;;;;;;;;;;
2014;[18350] CHEN LONG(2014)  [GeoReM [8456] ];samp. 09LZ26;;CENTRAL ASIAN FOLDBELT - MESOZOIC / CHINA - MESOZOIC / ANHUI PROVINCE / FUSHAN FORMATION;LUZONG AREA;30.8;117.3;31.1;117.6;;;OUTCROP;;;SUBAERIAL;VOLCANIC ROCK;TRACHYDACITE;PORPHYRITIC;;;;CRETACEOUS;LOWER;;;;MINERAL / COMPONENT (INCL. GROUNDMASS);ZIRCON;;;;PRIMARY;;;;;;;;;;;;;;;;;;;;;;;;;;;;;;;;;;;;;;;;;;;;;;;;;;;;;;;;;;;;;;;;;;;;;;;;;;;;;;;;;;;;;;;;;;;;;;;;;;;;;;;;;;;;;;;;;;;;;;;;;;;;;;;;;;;;;;;;;;;;;;;;;;;;;;;;;;;;;;;;;;;;;;;;;;;;;;;;;;;;;;;;;;;;;;;;;;;;;;;;0.282619;;;0.00432;0.118627;;;;;;;;;;;;;;;;;;;;;;;;;;;;;;;;;;;;;;;;;;;;;;;;;;;;;;;
2014;[18350] CHEN LONG(2014)  [GeoReM [8456] ];samp. 09LZ26;;CENTRAL ASIAN FOLDBELT - MESOZOIC / CHINA - MESOZOIC / ANHUI PROVINCE / FUSHAN FORMATION;LUZONG AREA;30.8;117.3;31.1;117.6;;;OUTCROP;;;SUBAERIAL;VOLCANIC ROCK;TRACHYDACITE;PORPHYRITIC;;;;CRETACEOUS;LOWER;;;;MINERAL / COMPONENT (INCL. GROUNDMASS);ZIRCON;;;;PRIMARY;;;;;;;;;;;;;;;;;;;;;;;;;;;;;;;;;;;;;;;;;;;;;;;;;;;;;;;;;;;;;;;;;;;;;;;;;;;;;;;;;;;;;;;;;;;;;;;;;;;;;;;;;;;;;;;;;;;;;;;;;;;;;;;;;;;;;;;;;;;;;;;;;;;;;;;;;;;;;;;;;;;;;;;;;;;;;;;;;;;;;;;;;;;;;;;;;;;;;;;;0.282717;;;0.006164;0.182722;;;;;;;;;;;;;;;;;;;;;;;;;;;;;;;;;;;;;;;;;;;;;;;;;;;;;;;
2014;[18350] CHEN LONG(2014)  [GeoReM [8456] ];samp. 09LZ26;;CENTRAL ASIAN FOLDBELT - MESOZOIC / CHINA - MESOZOIC / ANHUI PROVINCE / FUSHAN FORMATION;LUZONG AREA;30.8;117.3;31.1;117.6;;;OUTCROP;;;SUBAERIAL;VOLCANIC ROCK;TRACHYDACITE;PORPHYRITIC;;;;CRETACEOUS;LOWER;;;;MINERAL / COMPONENT (INCL. GROUNDMASS);ZIRCON;;;;PRIMARY;;;;;;;;;;;;;;;;;;;;;;;;;;;;;;;;;;;;;;;;;;;;;;;;;;;;;;;;;;;;;;;;;;;;;;;;;;;;;;;;;;;;;;;;;;;;;;;;;;;;;;;;;;;;;;;;;;;;;;;;;;;;;;;;;;;;;;;;;;;;;;;;;;;;;;;;;;;;;;;;;;;;;;;;;;;;;;;;;;;;;;;;;;;;;;;;;;;;;;;;0.282693;;;0.002147;0.066232;;;;;;;;;;;;;;;;;;;;;;;;;;;;;;;;;;;;;;;;;;;;;;;;;;;;;;;
2014;[18350] CHEN LONG(2014)  [GeoReM [8456] ];samp. 09LZ26;;CENTRAL ASIAN FOLDBELT - MESOZOIC / CHINA - MESOZOIC / ANHUI PROVINCE / FUSHAN FORMATION;LUZONG AREA;30.8;117.3;31.1;117.6;;;OUTCROP;;;SUBAERIAL;VOLCANIC ROCK;TRACHYDACITE;PORPHYRITIC;;;;CRETACEOUS;LOWER;;;;MINERAL / COMPONENT (INCL. GROUNDMASS);ZIRCON;;;;PRIMARY;;;;;;;;;;;;;;;;;;;;;;;;;;;;;;;;;;;;;;;;;;;;;;;;;;;;;;;;;;;;;;;;;;;;;;;;;;;;;;;;;;;;;;;;;;;;;;;;;;;;;;;;;;;;;;;;;;;;;;;;;;;;;;;;;;;;;;;;;;;;;;;;;;;;;;;;;;;;;;;;;;;;;;;;;;;;;;;;;;;;;;;;;;;;;;;;;;;;;;;;0.282703;;;0.008427;0.233488;;;;;;;;;;;;;;;;;;;;;;;;;;;;;;;;;;;;;;;;;;;;;;;;;;;;;;;
2014;[18350] CHEN LONG(2014)  [GeoReM [8456] ];samp. 09LZ26;;CENTRAL ASIAN FOLDBELT - MESOZOIC / CHINA - MESOZOIC / ANHUI PROVINCE / FUSHAN FORMATION;LUZONG AREA;30.8;117.3;31.1;117.6;;;OUTCROP;;;SUBAERIAL;VOLCANIC ROCK;TRACHYDACITE;PORPHYRITIC;;;;CRETACEOUS;LOWER;;;;MINERAL / COMPONENT (INCL. GROUNDMASS);ZIRCON;;;;PRIMARY;;;;;;;;;;;;;;;;;;;;;;;;;;;;;;;;;;;;;;;;;;;;;;;;;;;;;;;;;;;;;;;;;;;;;;;;;;;;;;;;;;;;;;;;;;;;;;;;;;;;;;;;;;;;;;;;;;;;;;;;;;;;;;;;;;;;;;;;;;;;;;;;;;;;;;;;;;;;;;;;;;;;;;;;;;;;;;;;;;;;;;;;;;;;;;;;;;;;;;;;0.282658;;;0.00202;0.049205;;;;;;;;;;;;;;;;;;;;;;;;;;;;;;;;;;;;;;;;;;;;;;;;;;;;;;;
2014;[18350] CHEN LONG(2014)  [GeoReM [8456] ];samp. 09LZ26;;CENTRAL ASIAN FOLDBELT - MESOZOIC / CHINA - MESOZOIC / ANHUI PROVINCE / FUSHAN FORMATION;LUZONG AREA;30.8;117.3;31.1;117.6;;;OUTCROP;;;SUBAERIAL;VOLCANIC ROCK;TRACHYDACITE;PORPHYRITIC;;;;CRETACEOUS;LOWER;;;;MINERAL / COMPONENT (INCL. GROUNDMASS);ZIRCON;;;;PRIMARY;;;;;;;;;;;;;;;;;;;;;;;;;;;;;;;;;;;;;;;;;;;;;;;;;;;;;;;;;;;;;;;;;;;;;;;;;;;;;;;;;;;;;;;;;;;;;;;;;;;;;;;;;;;;;;;;;;;;;;;;;;;;;;;;;;;;;;;;;;;;;;;;;;;;;;;;;;;;;;;;;;;;;;;;;;;;;;;;;;;;;;;;;;;;;;;;;;;;;;;;0.282715;;;0.003568;0.101661;;;;;;;;;;;;;;;;;;;;;;;;;;;;;;;;;;;;;;;;;;;;;;;;;;;;;;;
2014;[18350] CHEN LONG(2014)  [GeoReM [8456] ];samp. 09LZ26;;CENTRAL ASIAN FOLDBELT - MESOZOIC / CHINA - MESOZOIC / ANHUI PROVINCE / FUSHAN FORMATION;LUZONG AREA;30.8;117.3;31.1;117.6;;;OUTCROP;;;SUBAERIAL;VOLCANIC ROCK;TRACHYDACITE;PORPHYRITIC;;;;CRETACEOUS;LOWER;;;;MINERAL / COMPONENT (INCL. GROUNDMASS);ZIRCON;;;;PRIMARY;;;;;;;;;;;;;;;;;;;;;;;;;;;;;;;;;;;;;;;;;;;;;;;;;;;;;;;;;;;;;;;;;;;;;;;;;;;;;;;;;;;;;;;;;;;;;;;;;;;;;;;;;;;;;;;;;;;;;;;;;;;;;;;;;;;;;;;;;;;;;;;;;;;;;;;;;;;;;;;;;;;;;;;;;;;;;;;;;;;;;;;;;;;;;;;;;;;;;;;;0.282759;;;0.005134;0.163896;;;;;;;;;;;;;;;;;;;;;;;;;;;;;;;;;;;;;;;;;;;;;;;;;;;;;;;