Year;CITATION;SAMPLE NAME;UNIQUE_ID;LOCATION;LOCATION COMMENT;LATITUDE (MIN.);LONGITUDE (MIN.);LATITUDE (MAX.);LONGITUDE (MAX.);ELEVATION (MIN.);ELEVATION (MAX.);SAMPLING TECHNIQUE;DRILLING DEPTH (MIN.);DRILLING DEPTH (MAX.);LAND/SEA (SAMPLING);ROCK TYPE;ROCK NAME;ROCK TEXTURE;SAMPLE COMMENT;AGE (MIN.);AGE (MAX.);GEOLOGICAL AGE;GEOLOGICAL AGE PREFIX;ERUPTION YEAR;ALTERATION;ALTERATION TYPE;TYPE OF MATERIAL;MINERAL / COMPONENT;SPOT (MINERAL);CRYSTAL;RIM / CORE (MINERAL GRAINS);PRIMARY/SECONDARY;INCLUSION TYPE;SPOT (INCLUSION);MINERAL (INCLUSION);RIM / CORE (INCLUSION);HOSTMINERAL (INCLUSION);HEATING;HEATING TEMPERATURE (?C);SIO2(WT%);TIO2(WT%);ZRO2(WT%);B2O3(WT%);AL2O3(WT%);CR2O3(WT%);LA2O3(WT%);CE2O3(WT%);Y2O3(WT%);V2O3(WT%);NB2O3(WT%);TA2O5(WT%);WO3(WT%);FE2O3T(WT%);FE2O3(WT%);FEOT(WT%);FEO(WT%);CAO(WT%);MGO(WT%);MNO(WT%);BAO(WT%);SRO(WT%);NIO(WT%);ZNO(WT%);CS2O(WT%);RB2O(WT%);K2O(WT%);;;;NA2O(WT%);P2O5(WT%);H2O(WT%);;;;H2OP(WT%);H2OM(WT%);CO2(WT%);C(WT%);F(WT%);CL(WT%);SO2(WT%);SO3(WT%);S(WT%);LOI(WT%);AL(WT%);TI(WT%);FE(WT%);MG(WT%);CA(WT%);K(WT%);NA(WT%);LI(PPM);BE(PPM);B(PPM);C(PPM);F(PPM);NA(PPM);MG(PPM);AL(PPM);P(PPM);S(PPM);CL(PPM);AR40(AT/G);AR40(CCMSTP/G);AR40(MOL/G);AR40(PPB);K(PPM);CA(PPM);SC(PPM);;;;TI(PPM);;;;V(PPM);CR(PPM);MN(PPM);FE(PPM);CO(PPM);NI(PPM);CU(PPM);ZN(PPM);GA(PPM);GE(PPM);AS(PPM);SE(PPM);BR(PPM);RB(PPM): altern. values or methods;;;;SR(PPM): altern. values or methods;;;;Y(PPM): altern. values or methods;;;;ZR(PPM): altern. values or methods;;;;NB(PPM): altern. values or methods;;;;MO(PPM): altern. values or methods;;;;AG(PPM);CD(PPM);IN(PPM);SN(PPM);SB(PPM);TE(PPM);CS(PPM);BA(PPM): altern. values or methods;;;;LA(PPM): altern. values or methods;;;;CE(PPM): altern. values or methods;;;;PR(PPM);ND(PPM): altern. values or methods;;;;SM(PPM): altern. values or methods;;;;EU(PPM);GD(PPM);TB(PPM);DY(PPM);HO(PPM);ER(PPM);TM(PPM);YB(PPM);LU(PPM);HF(PPM);TA(PPM);W(PPM);RE(PPM);AU(PPM);AU(PPB);HG(PPM);HG(PPB);TL(PPM);PB(PPM): altern. values or methods;;;;PB206(PPM);BI(PPM);TH(PPM): altern. values or methods;;;;U(PPM);ND143_ND144;ND143_ND144_INI;EPSILON_ND;EPSILON_ND_INI;SM147_ND144;SR87_SR86;SR87_SR86_INI;EPSILON_SR;EPSILON_SR_INI;RB87_SR86;PB206_PB204;PB206_PB204_INI;PB206_PB207;PB206_PB208;PB207_PB204;PB207_PB204_INI;PB207_PB206;PB208_PB204;PB208_PB204_INI;PB208_PB206;HF176_HF177;HF176_HF177_INI;EPSILON_HF_INI;LU176_HF177;YB176_HF177;AR36_AR39;AR36_AR40;AR37_AR39;AR38_AR39;AR39_AR40;AR40_AR36;AR40_AR39;PB206_U238;PB207_U235;PB208_TH232;TH232_PB204;TH232_U238;U235_PB204;U238_PB204;U238_PB206;D7LI(VS LSVEC);D18O(PER MIL);D18O(VS SMOW);D18O(VS VSMOW);D56FE(VS IRMM-014);D57FE(VS IRMM-014);DD(VS SMOW);ALBITE(MOL%);ANORTHITE(MOL%);CA OLIVINE(MOL%);ENSTATITE(MOL%);FAYALITE(MOL%);FORSTERITE(MOL%);FERROSILITE(MOL%);ORTHOCLASE(MOL%);TEPHROITE(MOL%);ULVOSPINEL(MOL%);WOLLASTONITE(MOL%);AGE(KA): altern. values or methods;;;;AGE(MA): altern. values or methods;;;;;;;;AGE_PB207_PB206(MA);AGE_PB207_U235(MA);AGE_PB206_U238(MA): altern. values or methods;;;;;;AGE_PB208_TH232(MA);
2008;[12806] ARPA M. C. B. (2008);samp. 040303-3B;;LUZON ARC / LUZON ARC / LUZON / SOUTHWEST LUZON VOLCANIC FIELD;DILIMAN TUFF, N OF TAAL CALDERA AREA AND NW OF LAGUNA CALDERA;14.03;121.0475;14.03;121.0475;;;OUTCROP;;;SUBAERIAL;VOLCANIC ROCK;TRACHYDACITE;;;;;;;;;;MINERAL / COMPONENT (INCL. GROUNDMASS);PLAGIOCLASE;PL1-R1;;;PRIMARY;;;;;;;;53.99;;;;27.91;;;;;;;;;;;0.52;;10.96;;;;;;;;;0.29;EMP (EPMA);;;4.83;;;;;;;;;;;;;;;;;;;;;;;;;;;;;;;;;;;;;;;;;;;;;;;;;;;;;;;;;;;;;;;;;;;;;;;;;;;;;;;;;;;;;;;;;;;;;;;;;;;;;;;;;;;;;;;;;;;;;;;;;;;;;;;;;;;;;;;;;;;;;;;;;;;;;;;;;;;;;;;;;;;;;;;;;;;;;;;;;;;;;;;;;;;;;;54.38;;;;;;;;;;;;;;;;;;;;;;;;;;;;;;;
2008;[12806] ARPA M. C. B. (2008);samp. 040303-3B;;LUZON ARC / LUZON ARC / LUZON / SOUTHWEST LUZON VOLCANIC FIELD;DILIMAN TUFF, N OF TAAL CALDERA AREA AND NW OF LAGUNA CALDERA;14.03;121.0475;14.03;121.0475;;;OUTCROP;;;SUBAERIAL;VOLCANIC ROCK;TRACHYDACITE;;;;;;;;;;MINERAL / COMPONENT (INCL. GROUNDMASS);PLAGIOCLASE;PL1-R2;;;PRIMARY;;;;;;;;54.97;;;;26.87;;;;;;;;;;;0.59;;10.24;;;;;;;;;0.4;EMP (EPMA);;;5.41;;;;;;;;;;;;;;;;;;;;;;;;;;;;;;;;;;;;;;;;;;;;;;;;;;;;;;;;;;;;;;;;;;;;;;;;;;;;;;;;;;;;;;;;;;;;;;;;;;;;;;;;;;;;;;;;;;;;;;;;;;;;;;;;;;;;;;;;;;;;;;;;;;;;;;;;;;;;;;;;;;;;;;;;;;;;;;;;;;;;;;;;;;;;;;50.81;;;;;;;;;;;;;;;;;;;;;;;;;;;;;;;
2008;[12806] ARPA M. C. B. (2008);samp. 040303-3B;;LUZON ARC / LUZON ARC / LUZON / SOUTHWEST LUZON VOLCANIC FIELD;DILIMAN TUFF, N OF TAAL CALDERA AREA AND NW OF LAGUNA CALDERA;14.03;121.0475;14.03;121.0475;;;OUTCROP;;;SUBAERIAL;VOLCANIC ROCK;TRACHYDACITE;;;;;;;;;;MINERAL / COMPONENT (INCL. GROUNDMASS);PLAGIOCLASE;PL2-C;;;PRIMARY;;;;;;;;54.3;;;;28.05;;;;;;;;;;;0.55;;10.72;;;;;;;;;0.38;EMP (EPMA);;;5.17;;;;;;;;;;;;;;;;;;;;;;;;;;;;;;;;;;;;;;;;;;;;;;;;;;;;;;;;;;;;;;;;;;;;;;;;;;;;;;;;;;;;;;;;;;;;;;;;;;;;;;;;;;;;;;;;;;;;;;;;;;;;;;;;;;;;;;;;;;;;;;;;;;;;;;;;;;;;;;;;;;;;;;;;;;;;;;;;;;;;;;;;;;;;;;53.18;;;;;;;;;;;;;;;;;;;;;;;;;;;;;;;
2008;[12806] ARPA M. C. B. (2008);samp. 040303-3B;;LUZON ARC / LUZON ARC / LUZON / SOUTHWEST LUZON VOLCANIC FIELD;DILIMAN TUFF, N OF TAAL CALDERA AREA AND NW OF LAGUNA CALDERA;14.03;121.0475;14.03;121.0475;;;OUTCROP;;;SUBAERIAL;VOLCANIC ROCK;TRACHYDACITE;;;;;;;;;;MINERAL / COMPONENT (INCL. GROUNDMASS);PLAGIOCLASE;PL2-R1;;;PRIMARY;;;;;;;;54.51;;;;27.77;;;;;;;;;;;0.51;;10.59;;;;;;;;;0.44;EMP (EPMA);;;5.44;;;;;;;;;;;;;;;;;;;;;;;;;;;;;;;;;;;;;;;;;;;;;;;;;;;;;;;;;;;;;;;;;;;;;;;;;;;;;;;;;;;;;;;;;;;;;;;;;;;;;;;;;;;;;;;;;;;;;;;;;;;;;;;;;;;;;;;;;;;;;;;;;;;;;;;;;;;;;;;;;;;;;;;;;;;;;;;;;;;;;;;;;;;;;;52.54;;;;;;;;;;;;;;;;;;;;;;;;;;;;;;;
2008;[12806] ARPA M. C. B. (2008);samp. 040303-3B;;LUZON ARC / LUZON ARC / LUZON / SOUTHWEST LUZON VOLCANIC FIELD;DILIMAN TUFF, N OF TAAL CALDERA AREA AND NW OF LAGUNA CALDERA;14.03;121.0475;14.03;121.0475;;;OUTCROP;;;SUBAERIAL;VOLCANIC ROCK;TRACHYDACITE;;;;;;;;;;MINERAL / COMPONENT (INCL. GROUNDMASS);PLAGIOCLASE;PL3-C;;;PRIMARY;;;;;;;;55.93;;;;27.1;;;;;;;;;;;0.53;;10.35;;;;;;;;;0.43;EMP (EPMA);;;5.6;;;;;;;;;;;;;;;;;;;;;;;;;;;;;;;;;;;;;;;;;;;;;;;;;;;;;;;;;;;;;;;;;;;;;;;;;;;;;;;;;;;;;;;;;;;;;;;;;;;;;;;;;;;;;;;;;;;;;;;;;;;;;;;;;;;;;;;;;;;;;;;;;;;;;;;;;;;;;;;;;;;;;;;;;;;;;;;;;;;;;;;;;;;;;;51.36;;;;;;;;;;;;;;;;;;;;;;;;;;;;;;;
2008;[12806] ARPA M. C. B. (2008);samp. 040303-3B;;LUZON ARC / LUZON ARC / LUZON / SOUTHWEST LUZON VOLCANIC FIELD;DILIMAN TUFF, N OF TAAL CALDERA AREA AND NW OF LAGUNA CALDERA;14.03;121.0475;14.03;121.0475;;;OUTCROP;;;SUBAERIAL;VOLCANIC ROCK;TRACHYDACITE;;;;;;;;;;MINERAL / COMPONENT (INCL. GROUNDMASS);PLAGIOCLASE;PL3-R1;;;PRIMARY;;;;;;;;54.97;;;;27.66;;;;;;;;;;;0.57;;10.7;;;;;;;;;0.4;EMP (EPMA);;;5.18;;;;;;;;;;;;;;;;;;;;;;;;;;;;;;;;;;;;;;;;;;;;;;;;;;;;;;;;;;;;;;;;;;;;;;;;;;;;;;;;;;;;;;;;;;;;;;;;;;;;;;;;;;;;;;;;;;;;;;;;;;;;;;;;;;;;;;;;;;;;;;;;;;;;;;;;;;;;;;;;;;;;;;;;;;;;;;;;;;;;;;;;;;;;;;53.07;;;;;;;;;;;;;;;;;;;;;;;;;;;;;;;
2008;[12806] ARPA M. C. B. (2008);samp. 040303-2F;;LUZON ARC / LUZON ARC / LUZON / SOUTHWEST LUZON VOLCANIC FIELD;DILIMAN TUFF, N OF TAAL CALDERA AREA AND NW OF LAGUNA CALDERA;14.03;121.0475;14.03;121.0475;;;OUTCROP;;;SUBAERIAL;VOLCANIC ROCK;TRACHYDACITE;;;;;;;;;;MINERAL / COMPONENT (INCL. GROUNDMASS);PYROXENE;PX1;;;PRIMARY;;;;;;;;51.06;0.39;;;1.22;;;;;;;;;;;9.82;;18.39;14.83;0.97;;;;;;;;;;;0.38;;;;;;;;;;;;;;;;;;;;;;;;;;;;;;;;;;;;;;;;;;;;;;;;;;;;;;;;;;;;;;;;;;;;;;;;;;;;;;;;;;;;;;;;;;;;;;;;;;;;;;;;;;;;;;;;;;;;;;;;;;;;;;;;;;;;;;;;;;;;;;;;;;;;;;;;;;;;;;;;;;;;;;;;;;;;;;;;;;;;;;;;;;;;;;;;;;;;;;;;;;;;;;;;;;;;;;;;;;;;;
2008;[12806] ARPA M. C. B. (2008);samp. 040303-3B;;LUZON ARC / LUZON ARC / LUZON / SOUTHWEST LUZON VOLCANIC FIELD;DILIMAN TUFF, N OF TAAL CALDERA AREA AND NW OF LAGUNA CALDERA;14.03;121.0475;14.03;121.0475;;;OUTCROP;;;SUBAERIAL;VOLCANIC ROCK;TRACHYDACITE;;;;;;;;;;MINERAL / COMPONENT (INCL. GROUNDMASS);PYROXENE;PX1;;;PRIMARY;;;;;;;;52.05;0.42;;;1.9;;;;;;;;;;;8.76;;20.64;15.51;0.42;;;;;;;;;;;0.3;;;;;;;;;;;;;;;;;;;;;;;;;;;;;;;;;;;;;;;;;;;;;;;;;;;;;;;;;;;;;;;;;;;;;;;;;;;;;;;;;;;;;;;;;;;;;;;;;;;;;;;;;;;;;;;;;;;;;;;;;;;;;;;;;;;;;;;;;;;;;;;;;;;;;;;;;;;;;;;;;;;;;;;;;;;;;;;;;;;;;;;;;;;;;;;;;;;;;;;;;;;;;;;;;;;;;;;;;;;;;
2008;[12806] ARPA M. C. B. (2008);samp. 040303-3B;;LUZON ARC / LUZON ARC / LUZON / SOUTHWEST LUZON VOLCANIC FIELD;DILIMAN TUFF, N OF TAAL CALDERA AREA AND NW OF LAGUNA CALDERA;14.03;121.0475;14.03;121.0475;;;OUTCROP;;;SUBAERIAL;VOLCANIC ROCK;TRACHYDACITE;;;;;;;;;;MINERAL / COMPONENT (INCL. GROUNDMASS);PYROXENE;PX2;;;PRIMARY;;;;;;;;53.45;0.29;;;0.99;;;;;;;;;;;19.48;;1.57;23.91;1.31;;;;;;;;;;;0.02;;;;;;;;;;;;;;;;;;;;;;;;;;;;;;;;;;;;;;;;;;;;;;;;;;;;;;;;;;;;;;;;;;;;;;;;;;;;;;;;;;;;;;;;;;;;;;;;;;;;;;;;;;;;;;;;;;;;;;;;;;;;;;;;;;;;;;;;;;;;;;;;;;;;;;;;;;;;;;;;;;;;;;;;;;;;;;;;;;;;;;;;;;;;;;;;;;;;;;;;;;;;;;;;;;;;;;;;;;;;;
2008;[12806] ARPA M. C. B. (2008);samp. 040303-3B;;LUZON ARC / LUZON ARC / LUZON / SOUTHWEST LUZON VOLCANIC FIELD;DILIMAN TUFF, N OF TAAL CALDERA AREA AND NW OF LAGUNA CALDERA;14.03;121.0475;14.03;121.0475;;;OUTCROP;;;SUBAERIAL;VOLCANIC ROCK;TRACHYDACITE;;;;;;;;;;MINERAL / COMPONENT (INCL. GROUNDMASS);PYROXENE;PX4;;;PRIMARY;;;;;;;;51.89;0.52;;;2.01;;;;;;;;;;;9.65;;19.64;15.48;0.68;;;;;;;;;;;0.35;;;;;;;;;;;;;;;;;;;;;;;;;;;;;;;;;;;;;;;;;;;;;;;;;;;;;;;;;;;;;;;;;;;;;;;;;;;;;;;;;;;;;;;;;;;;;;;;;;;;;;;;;;;;;;;;;;;;;;;;;;;;;;;;;;;;;;;;;;;;;;;;;;;;;;;;;;;;;;;;;;;;;;;;;;;;;;;;;;;;;;;;;;;;;;;;;;;;;;;;;;;;;;;;;;;;;;;;;;;;;
2008;[12806] ARPA M. C. B. (2008);samp. 040303-3B;;LUZON ARC / LUZON ARC / LUZON / SOUTHWEST LUZON VOLCANIC FIELD;DILIMAN TUFF, N OF TAAL CALDERA AREA AND NW OF LAGUNA CALDERA;14.03;121.0475;14.03;121.0475;;;OUTCROP;;;SUBAERIAL;VOLCANIC ROCK;TRACHYDACITE;;;;;;;;;;MINERAL / COMPONENT (INCL. GROUNDMASS);PYROXENE;PX5;;;PRIMARY;;;;;;;;51.78;0.43;;;1.69;;;;;;;;;;;9.49;;19.79;15.7;0.55;;;;;;;;;;;0.33;;;;;;;;;;;;;;;;;;;;;;;;;;;;;;;;;;;;;;;;;;;;;;;;;;;;;;;;;;;;;;;;;;;;;;;;;;;;;;;;;;;;;;;;;;;;;;;;;;;;;;;;;;;;;;;;;;;;;;;;;;;;;;;;;;;;;;;;;;;;;;;;;;;;;;;;;;;;;;;;;;;;;;;;;;;;;;;;;;;;;;;;;;;;;;;;;;;;;;;;;;;;;;;;;;;;;;;;;;;;;
2008;[12806] ARPA M. C. B. (2008);samp. 040303-2F;;LUZON ARC / LUZON ARC / LUZON / SOUTHWEST LUZON VOLCANIC FIELD;DILIMAN TUFF, N OF TAAL CALDERA AREA AND NW OF LAGUNA CALDERA;14.03;121.0475;14.03;121.0475;;;OUTCROP;;;SUBAERIAL;VOLCANIC ROCK;TRACHYDACITE;;;;;;;;;;MINERAL / COMPONENT (INCL. GROUNDMASS);GLASS;GM1;GROUNDMASS;;PRIMARY;;;;;;;;63.98;0.61;;;16.13;0;;;;;;;;;;4.1;;2.71;1.21;0.19;;;;;;;3.79;EMP (EPMA);;;3.98;;;;;;;;;;0;0.15;;;;;;;;;;;;;;;;;;;;;;;;;;;;;;;;;;;;;;;;;;;;;;;;;;;;;;;;;;;;;;;;;;;;;;;;;;;;;;;;;;;;;;;;;;;;;;;;;;;;;;;;;;;;;;;;;;;;;;;;;;;;;;;;;;;;;;;;;;;;;;;;;;;;;;;;;;;;;;;;;;;;;;;;;;;;;;;;;;;;;;;;;;;;;;;;;;;;;;;;;;;;;;;;;;
2008;[12806] ARPA M. C. B. (2008);samp. 040303-2F;;LUZON ARC / LUZON ARC / LUZON / SOUTHWEST LUZON VOLCANIC FIELD;DILIMAN TUFF, N OF TAAL CALDERA AREA AND NW OF LAGUNA CALDERA;14.03;121.0475;14.03;121.0475;;;OUTCROP;;;SUBAERIAL;VOLCANIC ROCK;TRACHYDACITE;;;;;;;;;;MINERAL / COMPONENT (INCL. GROUNDMASS);GLASS;GM2;GROUNDMASS;;PRIMARY;;;;;;;;64.93;0.63;;;16.68;0;;;;;;;;;;3.87;;2.71;1.15;0.1;;;;;;;3.63;EMP (EPMA);;;4.6;;;;;;;;;;0;0.18;;;;;;;;;;;;;;;;;;;;;;;;;;;;;;;;;;;;;;;;;;;;;;;;;;;;;;;;;;;;;;;;;;;;;;;;;;;;;;;;;;;;;;;;;;;;;;;;;;;;;;;;;;;;;;;;;;;;;;;;;;;;;;;;;;;;;;;;;;;;;;;;;;;;;;;;;;;;;;;;;;;;;;;;;;;;;;;;;;;;;;;;;;;;;;;;;;;;;;;;;;;;;;;;;;
2008;[12806] ARPA M. C. B. (2008);samp. 040303-2F;;LUZON ARC / LUZON ARC / LUZON / SOUTHWEST LUZON VOLCANIC FIELD;DILIMAN TUFF, N OF TAAL CALDERA AREA AND NW OF LAGUNA CALDERA;14.03;121.0475;14.03;121.0475;;;OUTCROP;;;SUBAERIAL;VOLCANIC ROCK;TRACHYDACITE;;;;;;;;;;MINERAL / COMPONENT (INCL. GROUNDMASS);GLASS;GM5;GROUNDMASS;;PRIMARY;;;;;;;;63.32;0.58;;;15.22;0.01;;;;;;;;;;3.48;;2.14;0.69;0.15;;;;;;;4.71;EMP (EPMA);;;3.31;;;;;;;;;;0;0.18;;;;;;;;;;;;;;;;;;;;;;;;;;;;;;;;;;;;;;;;;;;;;;;;;;;;;;;;;;;;;;;;;;;;;;;;;;;;;;;;;;;;;;;;;;;;;;;;;;;;;;;;;;;;;;;;;;;;;;;;;;;;;;;;;;;;;;;;;;;;;;;;;;;;;;;;;;;;;;;;;;;;;;;;;;;;;;;;;;;;;;;;;;;;;;;;;;;;;;;;;;;;;;;;;;
2008;[12806] ARPA M. C. B. (2008);samp. 040303-3B;;LUZON ARC / LUZON ARC / LUZON / SOUTHWEST LUZON VOLCANIC FIELD;DILIMAN TUFF, N OF TAAL CALDERA AREA AND NW OF LAGUNA CALDERA;14.03;121.0475;14.03;121.0475;;;OUTCROP;;;SUBAERIAL;VOLCANIC ROCK;TRACHYDACITE;;;;;;;;;;MINERAL / COMPONENT (INCL. GROUNDMASS);GLASS;GM1;GROUNDMASS;;PRIMARY;;;;;;;;62.55;0.56;;;15.52;0.03;;;;;;;;;;3.85;;2.58;1.03;0.1;;;;;;;3.97;EMP (EPMA);;;3.98;;;;;;;;;;0;0.14;;;;;;;;;;;;;;;;;;;;;;;;;;;;;;;;;;;;;;;;;;;;;;;;;;;;;;;;;;;;;;;;;;;;;;;;;;;;;;;;;;;;;;;;;;;;;;;;;;;;;;;;;;;;;;;;;;;;;;;;;;;;;;;;;;;;;;;;;;;;;;;;;;;;;;;;;;;;;;;;;;;;;;;;;;;;;;;;;;;;;;;;;;;;;;;;;;;;;;;;;;;;;;;;;;
2008;[12806] ARPA M. C. B. (2008);samp. 040303-3B;;LUZON ARC / LUZON ARC / LUZON / SOUTHWEST LUZON VOLCANIC FIELD;DILIMAN TUFF, N OF TAAL CALDERA AREA AND NW OF LAGUNA CALDERA;14.03;121.0475;14.03;121.0475;;;OUTCROP;;;SUBAERIAL;VOLCANIC ROCK;TRACHYDACITE;;;;;;;;;;MINERAL / COMPONENT (INCL. GROUNDMASS);GLASS;GM2;GROUNDMASS;;PRIMARY;;;;;;;;63.29;0.63;;;15.4;0;;;;;;;;;;3.68;;2.39;0.88;0.14;;;;;;;3.98;EMP (EPMA);;;3.81;;;;;;;;;;0;0.14;;;;;;;;;;;;;;;;;;;;;;;;;;;;;;;;;;;;;;;;;;;;;;;;;;;;;;;;;;;;;;;;;;;;;;;;;;;;;;;;;;;;;;;;;;;;;;;;;;;;;;;;;;;;;;;;;;;;;;;;;;;;;;;;;;;;;;;;;;;;;;;;;;;;;;;;;;;;;;;;;;;;;;;;;;;;;;;;;;;;;;;;;;;;;;;;;;;;;;;;;;;;;;;;;;
2008;[12806] ARPA M. C. B. (2008);samp. 040303-3B;;LUZON ARC / LUZON ARC / LUZON / SOUTHWEST LUZON VOLCANIC FIELD;DILIMAN TUFF, N OF TAAL CALDERA AREA AND NW OF LAGUNA CALDERA;14.03;121.0475;14.03;121.0475;;;OUTCROP;;;SUBAERIAL;VOLCANIC ROCK;TRACHYDACITE;;;;;;;;;;MINERAL / COMPONENT (INCL. GROUNDMASS);GLASS;GM3;GROUNDMASS;;PRIMARY;;;;;;;;62.64;0.62;;;15.48;0;;;;;;;;;;3.95;;2.61;1.03;0.17;;;;;;;3.87;EMP (EPMA);;;3.92;;;;;;;;;;0.09;0.19;;;;;;;;;;;;;;;;;;;;;;;;;;;;;;;;;;;;;;;;;;;;;;;;;;;;;;;;;;;;;;;;;;;;;;;;;;;;;;;;;;;;;;;;;;;;;;;;;;;;;;;;;;;;;;;;;;;;;;;;;;;;;;;;;;;;;;;;;;;;;;;;;;;;;;;;;;;;;;;;;;;;;;;;;;;;;;;;;;;;;;;;;;;;;;;;;;;;;;;;;;;;;;;;;;
2009;[12849] CONTICELLI S.(2009)  [GeoReM [4472] ];samp. ALM 28;;BETIC-RIF OROGENIC BELT (GIBRALTAR ARC) / BETIC CORDILLERA / NEOGENE ALBORAN VOLCANIC PROVINCE;GALLINAZA, CABO DE GATA;37.6;-2.5;37.6;-2.5;;;OUTCROP;;;SUBAERIAL;VOLCANIC ROCK;TRACHYDACITE;;DOME;6000000;9000000;MIOCENE;;;;;WHOLE ROCK;;;;;;;;;;;;;;;;;;;;;;;;;;;;;;;;;;;;;;;;;;;;;;;;;;;;;;;;;;;;;;;;;;;;;;;;;;;;;;;;;;;12;ICPMS_LA;;;;;;;75;28;;;6;0;20;30;15;;;;;147;ICPMS_LA;;;93;ICPMS_LA;;;10;ICPMS_LA;;;115;ICPMS_LA;;;5;ICPMS_LA;;;;;;;;;;;;;5.9;298;ICPMS_LA;;;21.5;ICPMS_LA;;;42.7;ICPMS_LA;;;4.18;14.5;ICPMS_LA;;;2.5;ICPMS_LA;;;0.59;2;0.3;1.9;0.4;1.1;0.17;1.1;0.16;3.2;0.7;;;;;;;;24;ICPMS_LA;;;;;9.4;ICPMS_LA;;;2.6;0.512189;;;;;0.71372;;;;;18.869;;;;15.689;;;38.984;;;;;;;;;;;;;;;;;;;;;;;;;;;;;;;;;;;;;;;;;;;;;;;;;;;;;;;;;;;;;;
2009;[12869] PE-PIPER G. (2009);samp. LM61-107;;AEGEAN ARC / NORTHEAST AEGEAN VOLCANIC ARC / LIMNOS (LEMNOS);MYRINA;39.853;25.066;39.853;25.066;;;OUTCROP;;;SUBAERIAL;VOLCANIC ROCK;TRACHYDACITE;;;;;;;;MODERATELY ALTERED;;VOLCANIC GLASS;;;;;;;;;;;;;67.91;;;;16.93;;;;;;;;;;;0.46;;0.12;;;;;;;;;11.19;EMP (EPMA);;;3.2;;;;;;;;;;;;;;;;;;;;;;;;;;;;;;;;;;;;;;;;;;;;;;;;;;;;;;;;;;;;;;;;;;;;;;;;;;;;;;;;;;;;;;;;;;;;;;;;;;;;;;;;;;;;;;;;;;;;;;;;;;;;;;;;;;;;;;;;;;;;;;;;;;;;;;;;;;;;;;;;;;;;;;;;;;;;;;;;;;;;;;;;;;;;;;;;;;;;;;;;;;;;;;;;;;;;;;;;;;;;;
2009;[12869] PE-PIPER G. (2009);samp. LM61-62C;;AEGEAN ARC / NORTHEAST AEGEAN VOLCANIC ARC / LIMNOS (LEMNOS);MYRINA;39.853;25.066;39.853;25.066;;;OUTCROP;;;SUBAERIAL;VOLCANIC ROCK;TRACHYDACITE;PORPHYRITIC;LAVA FLOW;;;;;;MODERATELY ALTERED;;MINERAL / COMPONENT (INCL. GROUNDMASS);AMPHIBOLE;;;;PRIMARY;;;;;;;;46.13;1.9;;;9.26;0.02;;;;;;;;;;11.44;;14.97;11.88;0.31;;;;;;;0.93;EMP (EPMA);;;2.34;;;;;;;;;;;;;;;;;;;;;;;;;;;;;;;;;;;;;;;;;;;;;;;;;;;;;;;;;;;;;;;;;;;;;;;;;;;;;;;;;;;;;;;;;;;;;;;;;;;;;;;;;;;;;;;;;;;;;;;;;;;;;;;;;;;;;;;;;;;;;;;;;;;;;;;;;;;;;;;;;;;;;;;;;;;;;;;;;;;;;;;;;;;;;;;;;;;;;;;;;;;;;;;;;;;;;;;;;;;;;
2009;[12869] PE-PIPER G. (2009);samp. LM61-62R;;AEGEAN ARC / NORTHEAST AEGEAN VOLCANIC ARC / LIMNOS (LEMNOS);MYRINA;39.853;25.066;39.853;25.066;;;OUTCROP;;;SUBAERIAL;VOLCANIC ROCK;TRACHYDACITE;PORPHYRITIC;LAVA FLOW;;;;;;MODERATELY ALTERED;;MINERAL / COMPONENT (INCL. GROUNDMASS);AMPHIBOLE;;;;PRIMARY;;;;;;;;45.82;1.76;;;8.47;0.05;;;;;;;;;;15.06;;13.32;11.7;0.51;;;;;;;0.93;EMP (EPMA);;;2.21;;;;;;;;;;;;;;;;;;;;;;;;;;;;;;;;;;;;;;;;;;;;;;;;;;;;;;;;;;;;;;;;;;;;;;;;;;;;;;;;;;;;;;;;;;;;;;;;;;;;;;;;;;;;;;;;;;;;;;;;;;;;;;;;;;;;;;;;;;;;;;;;;;;;;;;;;;;;;;;;;;;;;;;;;;;;;;;;;;;;;;;;;;;;;;;;;;;;;;;;;;;;;;;;;;;;;;;;;;;;;
2009;[12869] PE-PIPER G. (2009);samp. LM07-61;;AEGEAN ARC / NORTHEAST AEGEAN VOLCANIC ARC / LIMNOS (LEMNOS);AGIOS IOANNIS;39.941;25.052;39.941;25.052;;;OUTCROP;;;SUBAERIAL;VOLCANIC ROCK;TRACHYDACITE;PORPHYRITIC;;;;;;;MODERATELY ALTERED;;MINERAL / COMPONENT (INCL. GROUNDMASS);AMPHIBOLE;;;;PRIMARY;;;;;;;;42.22;2.62;;;12.21;0.47;;;;;;;;;;11.74;;14.95;11.79;0.33;;;;;;;1.03;EMP (EPMA);;;2.44;;;;;;;;;;;;;;;;;;;;;;;;;;;;;;;;;;;;;;;;;;;;;;;;;;;;;;;;;;;;;;;;;;;;;;;;;;;;;;;;;;;;;;;;;;;;;;;;;;;;;;;;;;;;;;;;;;;;;;;;;;;;;;;;;;;;;;;;;;;;;;;;;;;;;;;;;;;;;;;;;;;;;;;;;;;;;;;;;;;;;;;;;;;;;;;;;;;;;;;;;;;;;;;;;;;;;;;;;;;;;
2009;[12869] PE-PIPER G. (2009);samp. LM07-97;;AEGEAN ARC / NORTHEAST AEGEAN VOLCANIC ARC / LIMNOS (LEMNOS);AGIOS IOANNIS;39.941;25.052;39.941;25.052;;;OUTCROP;;;SUBAERIAL;VOLCANIC ROCK;TRACHYDACITE;;;;;;;;;;MINERAL / COMPONENT (INCL. GROUNDMASS);MAGNETITE;;;;PRIMARY;;;;;;;;0.73;3.11;;;1.01;0.66;;;;;;;;;;85.81;;0.27;0.25;0.59;;;;;;;;;;;;;;;;;;;;;;;;;;;;;;;;;;;;;;;;;;;;;;;;;;;;;;;;;;;;;;;;;;;;;;;;;;;;;;;;;;;;;;;;;;;;;;;;;;;;;;;;;;;;;;;;;;;;;;;;;;;;;;;;;;;;;;;;;;;;;;;;;;;;;;;;;;;;;;;;;;;;;;;;;;;;;;;;;;;;;;;;;;;;;;;;;;;;;;;;;;;;;;;;;;;;;;;;;;;;;;;;;;;;;;;;
1999;[12983] GUIVEL C. (1999);samp. TA106;;ANDEAN ARC / SOUTHERN ANDEAN VOLCANIC ZONE / CHILE;TAITAO PENINSULA, BIMODAL DIKE COMPLEX;-46.6;-75.33;-46.6;-75.33;;;OUTCROP;;;SUBAERIAL;VOLCANIC ROCK;TRACHYDACITE;;DIKE;;;;;;;;WHOLE ROCK;;;;;;;;;;;;;65.8;0.65;;;15.86;;;;;;;;;3.91;;;;1.53;2.18;0.05;;;;;;;2.79;ICPAES;;;4.98;0.14;;;;;;;;;;;;;;2.01;;;;;;;;;;;;;;;;;;;;;;;;;8;ICPAES;;;;;;;80;9;;;9;7;;;;;;;;80;AAS;;;146;ICPAES;;;23;ICPAES;;;170;ICPAES;;;11.2;ICPAES;;;;;;;;;;;;;;500;ICPAES;;;20.2;ICPAES;;;41;ICPAES;;;;19;ICPAES;;;;;;;0.89;;;3.7;;2.3;;2.21;;;;;;;;;;;;;;;;;8;ICPAES;;;;;;;;;;;;;;;;;;;;;;;;;;;;;;;;;;;;;;;;;;;;;;;;;;;;;;;;;;;;;;;;;;;;;;;;;;;;;;;;;;;
1999;[12983] GUIVEL C. (1999);samp. TA108;;ANDEAN ARC / SOUTHERN ANDEAN VOLCANIC ZONE / CHILE;TAITAO PENINSULA, BIMODAL DIKE COMPLEX;-46.6;-75.33;-46.6;-75.33;;;OUTCROP;;;SUBAERIAL;VOLCANIC ROCK;TRACHYDACITE;;DIKE;;;;;;;;WHOLE ROCK;;;;;;;;;;;;;69.6;0.52;;;15;;;;;;;;;3.03;;;;0.87;1.36;0.05;;;;;;;3.19;ICPAES;;;5.01;0.1;;;;;;;;;;;;;;1.29;;;;;;;;;;;;;;;;;;;;;;;;;6.5;ICPAES;;;;;;;52;3;;;6;4;;;;;;;;99;AAS;;;118;ICPAES;;;19.5;ICPAES;;;180;ICPAES;;;10;ICPAES;;;;;;;;;;;;;;440;ICPAES;;;20.6;ICPAES;;;41;ICPAES;;;;18;ICPAES;;;;;;;0.84;;;3.1;;1.9;;1.8;;;;;;;;;;;;;;;;;7.45;ICPAES;;;;;;;;;;;;;;;;;;;;;;;;;;;;;;;;;;;;;;;;;;;;;;;;;;;;;;;;;;;;;;;;;;;;;;;;;;;;;;;;;;;
2006;[13302] VLAHOU M. (2006);samp. MLK-109;;AEGEAN ARC / NORTHEAST AEGEAN VOLCANIC ARC / SAMOTHRAKI;LAKOMA, SOUTHERN SAMOTHRAKI;40.48;25.52;40.48;25.52;;;OUTCROP;;;SUBAERIAL;VOLCANIC ROCK;TRACHYDACITE;;;;;;;;;;WHOLE ROCK;;;;;;;;;;;;;65.65;0.51;;;14.99;;;;;;;;;;2.98;;0.67;3.2;1.88;0.08;;;;;;;4.37;XRF;;;3.61;0.47;;;;;;;;;;;;;;1.61;;;;;;;;;;;;;;;;;;;;;;;;;;;;;;;;;99;8;;;6.87;4;;56;;;;;;167;XRF;175;MS_ID;1332;XRF;1530;MS_ID;15.5;ICPMS;;;315;XRF;;;17;XRF;;;;;;;;;;;;;;2408;XRF;;;104.26;ICPMS;;;185.42;ICPMS;;;21.35;69.84;ICPMS;68.4;MS_ID;9.68;ICPMS;10.51;MS_ID;2.9;12.9;0.7;3.9;0.38;1.47;;1.19;;;;;;;;;;;81.56;ICPMS;;;;;31;ICPMS;;;12.64;0.512273;;;;;0.709353;;;;0.33068;;;;;;;;;;;;;;;;;;;;;;;;;;;;;;;;;;;;;;;;;;;;;;;;;;;;;;;;;;;;;;;;;;;;;;