Year;CITATION;SAMPLE NAME;UNIQUE_ID;LOCATION;LOCATION COMMENT;LATITUDE (MIN.);LONGITUDE (MIN.);LATITUDE (MAX.);LONGITUDE (MAX.);ELEVATION (MIN.);ELEVATION (MAX.);SAMPLING TECHNIQUE;DRILLING DEPTH (MIN.);DRILLING DEPTH (MAX.);LAND/SEA (SAMPLING);ROCK TYPE;ROCK NAME;ROCK TEXTURE;SAMPLE COMMENT;AGE (MIN.);AGE (MAX.);GEOLOGICAL AGE;GEOLOGICAL AGE PREFIX;ERUPTION YEAR;ALTERATION;ALTERATION TYPE;TYPE OF MATERIAL;MINERAL / COMPONENT;SPOT (MINERAL);CRYSTAL;RIM / CORE (MINERAL GRAINS);PRIMARY/SECONDARY;INCLUSION TYPE;SPOT (INCLUSION);MINERAL (INCLUSION);RIM / CORE (INCLUSION);HOSTMINERAL (INCLUSION);HEATING;HEATING TEMPERATURE (?C);SIO2(WT%);TIO2(WT%);ZRO2(WT%);B2O3(WT%);AL2O3(WT%);CR2O3(WT%);LA2O3(WT%);CE2O3(WT%);Y2O3(WT%);V2O3(WT%);NB2O3(WT%);TA2O5(WT%);WO3(WT%);FE2O3T(WT%);FE2O3(WT%);FEOT(WT%);FEO(WT%);CAO(WT%);MGO(WT%);MNO(WT%);BAO(WT%);SRO(WT%);NIO(WT%);ZNO(WT%);CS2O(WT%);RB2O(WT%);K2O(WT%);;;;NA2O(WT%);P2O5(WT%);H2O(WT%);;;;H2OP(WT%);H2OM(WT%);CO2(WT%);C(WT%);F(WT%);CL(WT%);SO2(WT%);SO3(WT%);S(WT%);LOI(WT%);AL(WT%);TI(WT%);FE(WT%);MG(WT%);CA(WT%);K(WT%);NA(WT%);LI(PPM);BE(PPM);B(PPM);C(PPM);F(PPM);NA(PPM);MG(PPM);AL(PPM);P(PPM);S(PPM);CL(PPM);AR40(AT/G);AR40(CCMSTP/G);AR40(MOL/G);AR40(PPB);K(PPM);CA(PPM);SC(PPM);;;;TI(PPM);;;;V(PPM);CR(PPM);MN(PPM);FE(PPM);CO(PPM);NI(PPM);CU(PPM);ZN(PPM);GA(PPM);GE(PPM);AS(PPM);SE(PPM);BR(PPM);RB(PPM): altern. values or methods;;;;SR(PPM): altern. values or methods;;;;Y(PPM): altern. values or methods;;;;ZR(PPM): altern. values or methods;;;;NB(PPM): altern. values or methods;;;;MO(PPM): altern. values or methods;;;;AG(PPM);CD(PPM);IN(PPM);SN(PPM);SB(PPM);TE(PPM);CS(PPM);BA(PPM): altern. values or methods;;;;LA(PPM): altern. values or methods;;;;CE(PPM): altern. values or methods;;;;PR(PPM);ND(PPM): altern. values or methods;;;;SM(PPM): altern. values or methods;;;;EU(PPM);GD(PPM);TB(PPM);DY(PPM);HO(PPM);ER(PPM);TM(PPM);YB(PPM);LU(PPM);HF(PPM);TA(PPM);W(PPM);RE(PPM);AU(PPM);AU(PPB);HG(PPM);HG(PPB);TL(PPM);PB(PPM): altern. values or methods;;;;PB206(PPM);BI(PPM);TH(PPM): altern. values or methods;;;;U(PPM);ND143_ND144;ND143_ND144_INI;EPSILON_ND;EPSILON_ND_INI;SM147_ND144;SR87_SR86;SR87_SR86_INI;EPSILON_SR;EPSILON_SR_INI;RB87_SR86;PB206_PB204;PB206_PB204_INI;PB206_PB207;PB206_PB208;PB207_PB204;PB207_PB204_INI;PB207_PB206;PB208_PB204;PB208_PB204_INI;PB208_PB206;HF176_HF177;HF176_HF177_INI;EPSILON_HF_INI;LU176_HF177;YB176_HF177;AR36_AR39;AR36_AR40;AR37_AR39;AR38_AR39;AR39_AR40;AR40_AR36;AR40_AR39;PB206_U238;PB207_U235;PB208_TH232;TH232_PB204;TH232_U238;U235_PB204;U238_PB204;U238_PB206;D7LI(VS LSVEC);D18O(PER MIL);D18O(VS SMOW);D18O(VS VSMOW);D56FE(VS IRMM-014);D57FE(VS IRMM-014);DD(VS SMOW);ALBITE(MOL%);ANORTHITE(MOL%);CA OLIVINE(MOL%);ENSTATITE(MOL%);FAYALITE(MOL%);FORSTERITE(MOL%);FERROSILITE(MOL%);ORTHOCLASE(MOL%);TEPHROITE(MOL%);ULVOSPINEL(MOL%);WOLLASTONITE(MOL%);AGE(KA): altern. values or methods;;;;AGE(MA): altern. values or methods;;;;;;;;AGE_PB207_PB206(MA);AGE_PB207_U235(MA);AGE_PB206_U238(MA): altern. values or methods;;;;;;AGE_PB208_TH232(MA);
2015;[19926] YANG WU-BIN (2015);samp. TW4;;CENTRAL ASIAN FOLDBELT - MESOZOIC / CHINA - MESOZOIC / HEILONGJIANG PROVINCE / MANITU FORMATION;TUQUAN;45.5386;121.1825;45.5386;121.1825;;;OUTCROP;;;SUBAERIAL;VOLCANIC ROCK;TRACHYDACITE;;;;;CRETACEOUS;LOWER;;;;MINERAL / COMPONENT (INCL. GROUNDMASS);ZIRCON;;;;PRIMARY;;;;;;;;;;;;;;;;;;;;;;;;;;;;;;;;;;;;;;;;;;;;;;;;;;;;;;;;;;;;;;;;;;;;;;;;;;;;;;;;;;;;;;;;;;;;;;;;;;;;;;;;;;;;;;;;;;;;;;;;;;;;;;;;;;;;;;;;;;;;;;;;;;;;;;;;;;;;;;;;;;;;;;;;;;;;;;;1518;Q_ICPMS_LA;;;3281;;;;;;;;;;;;;;;;;0.05051;;;;;;;;;;;;;;;;0.01973;0.13742;;;;;;;;;;;;;;;;;;;;;;;;;;;;;;;;;;;;;219;131;126;PB206_U238 AGE;;;;;;
2015;[19926] YANG WU-BIN (2015);samp. TW4;;CENTRAL ASIAN FOLDBELT - MESOZOIC / CHINA - MESOZOIC / HEILONGJIANG PROVINCE / MANITU FORMATION;TUQUAN;45.5386;121.1825;45.5386;121.1825;;;OUTCROP;;;SUBAERIAL;VOLCANIC ROCK;TRACHYDACITE;;;;;CRETACEOUS;LOWER;;;;MINERAL / COMPONENT (INCL. GROUNDMASS);ZIRCON;;;;PRIMARY;;;;;;;;;;;;;;;;;;;;;;;;;;;;;;;;;;;;;;;;;;;;;;;;;;;;;;;;;;;;;;;;;;;;;;;;;;;;;;;;;;;;;;;;;;;;;;;;;;;;;;;;;;;;;;;;;;;;;;;;;;;;;;;;;;;;;;;;;;;;;;;;;;;;;;;;;;;;;;;;;;;;;;;;;;;;;;;864;Q_ICPMS_LA;;;1881;;;;;;;;;;;;;;;;;0.04871;;;;;;;;;;;;;;;;0.0207;0.13791;;;;;;;;;;;;;;;;;;;;;;;;;;;;;;;;;;;;;134;131;132;PB206_U238 AGE;;;;;;
2015;[19926] YANG WU-BIN (2015);samp. TW4;;CENTRAL ASIAN FOLDBELT - MESOZOIC / CHINA - MESOZOIC / HEILONGJIANG PROVINCE / MANITU FORMATION;TUQUAN;45.5386;121.1825;45.5386;121.1825;;;OUTCROP;;;SUBAERIAL;VOLCANIC ROCK;TRACHYDACITE;;;;;CRETACEOUS;LOWER;;;;MINERAL / COMPONENT (INCL. GROUNDMASS);ZIRCON;;;;PRIMARY;;;;;;;;;;;;;;;;;;;;;;;;;;;;;;;;;;;;;;;;;;;;;;;;;;;;;;;;;;;;;;;;;;;;;;;;;;;;;;;;;;;;;;;;;;;;;;;;;;;;;;;;;;;;;;;;;;;;;;;;;;;;;;;;;;;;;;;;;;;;;;;;;;;;;;;;;;;;;;;;;;;;;;;;;;;;;;;853;Q_ICPMS_LA;;;2128;;;;;;;;;;;;;;;;;0.04824;;;;;;;;;;;;;;;;0.02056;0.13689;;;;;;;;;;;;;;;;;;;;;;;;;;;;;;;;;;;;;111;130;131;PB206_U238 AGE;;;;;;
2015;[19926] YANG WU-BIN (2015);samp. TW4;;CENTRAL ASIAN FOLDBELT - MESOZOIC / CHINA - MESOZOIC / HEILONGJIANG PROVINCE / MANITU FORMATION;TUQUAN;45.5386;121.1825;45.5386;121.1825;;;OUTCROP;;;SUBAERIAL;VOLCANIC ROCK;TRACHYDACITE;;;;;CRETACEOUS;LOWER;;;;MINERAL / COMPONENT (INCL. GROUNDMASS);ZIRCON;;;;PRIMARY;;;;;;;;;;;;;;;;;;;;;;;;;;;;;;;;;;;;;;;;;;;;;;;;;;;;;;;;;;;;;;;;;;;;;;;;;;;;;;;;;;;;;;;;;;;;;;;;;;;;;;;;;;;;;;;;;;;;;;;;;;;;;;;;;;;;;;;;;;;;;;;;;;;;;;;;;;;;;;;;;;;;;;;;;;;;;;;834;Q_ICPMS_LA;;;2027;;;;;;;;;;;;;;;;;0.04729;;;;;;;;;;;;;;;;0.02143;0.13884;;;;;;;;;;;;;;;;;;;;;;;;;;;;;;;;;;;;;64;132;137;PB206_U238 AGE;;;;;;
2015;[19926] YANG WU-BIN (2015);samp. TW4;;CENTRAL ASIAN FOLDBELT - MESOZOIC / CHINA - MESOZOIC / HEILONGJIANG PROVINCE / MANITU FORMATION;TUQUAN;45.5386;121.1825;45.5386;121.1825;;;OUTCROP;;;SUBAERIAL;VOLCANIC ROCK;TRACHYDACITE;;;;;CRETACEOUS;LOWER;;;;MINERAL / COMPONENT (INCL. GROUNDMASS);ZIRCON;;;;PRIMARY;;;;;;;;;;;;;;;;;;;;;;;;;;;;;;;;;;;;;;;;;;;;;;;;;;;;;;;;;;;;;;;;;;;;;;;;;;;;;;;;;;;;;;;;;;;;;;;;;;;;;;;;;;;;;;;;;;;;;;;;;;;;;;;;;;;;;;;;;;;;;;;;;;;;;;;;;;;;;;;;;;;;;;;;;;;;;;;815;Q_ICPMS_LA;;;1889;;;;;;;;;;;;;;;;;0.05328;;;;;;;;;;;;;;;;0.02162;0.15803;;;;;;;;;;;;;;;;;;;;;;;;;;;;;;;;;;;;;341;149;138;PB206_U238 AGE;;;;;;
2015;[19926] YANG WU-BIN (2015);samp. TW4;;CENTRAL ASIAN FOLDBELT - MESOZOIC / CHINA - MESOZOIC / HEILONGJIANG PROVINCE / MANITU FORMATION;TUQUAN;45.5386;121.1825;45.5386;121.1825;;;OUTCROP;;;SUBAERIAL;VOLCANIC ROCK;TRACHYDACITE;;;;;CRETACEOUS;LOWER;;;;MINERAL / COMPONENT (INCL. GROUNDMASS);ZIRCON;;;;PRIMARY;;;;;;;;;;;;;;;;;;;;;;;;;;;;;;;;;;;;;;;;;;;;;;;;;;;;;;;;;;;;;;;;;;;;;;;;;;;;;;;;;;;;;;;;;;;;;;;;;;;;;;;;;;;;;;;;;;;;;;;;;;;;;;;;;;;;;;;;;;;;;;;;;;;;;;;;;;;;;;;;;;;;;;;;;;;;;;;927;Q_ICPMS_LA;;;2054;;;;;;;;;;;;;;;;;0.05362;;;;;;;;;;;;;;;;0.02156;0.15715;;;;;;;;;;;;;;;;;;;;;;;;;;;;;;;;;;;;;355;148;138;PB206_U238 AGE;;;;;;
2015;[19926] YANG WU-BIN (2015);samp. TW4;;CENTRAL ASIAN FOLDBELT - MESOZOIC / CHINA - MESOZOIC / HEILONGJIANG PROVINCE / MANITU FORMATION;TUQUAN;45.5386;121.1825;45.5386;121.1825;;;OUTCROP;;;SUBAERIAL;VOLCANIC ROCK;TRACHYDACITE;;;;;CRETACEOUS;LOWER;;;;MINERAL / COMPONENT (INCL. GROUNDMASS);ZIRCON;;;;PRIMARY;;;;;;;;;;;;;;;;;;;;;;;;;;;;;;;;;;;;;;;;;;;;;;;;;;;;;;;;;;;;;;;;;;;;;;;;;;;;;;;;;;;;;;;;;;;;;;;;;;;;;;;;;;;;;;;;;;;;;;;;;;;;;;;;;;;;;;;;;;;;;;;;;;;;;;;;;;;;;;;;;;;;;;;;;;;;;;;590;Q_ICPMS_LA;;;1493;;;;;;;;;;;;;;;;;0.05008;;;;;;;;;;;;;;;;0.02239;0.15434;;;;;;;;;;;;;;;;;;;;;;;;;;;;;;;;;;;;;199;146;143;PB206_U238 AGE;;;;;;
2015;[19926] YANG WU-BIN (2015);samp. TW4;;CENTRAL ASIAN FOLDBELT - MESOZOIC / CHINA - MESOZOIC / HEILONGJIANG PROVINCE / MANITU FORMATION;TUQUAN;45.5386;121.1825;45.5386;121.1825;;;OUTCROP;;;SUBAERIAL;VOLCANIC ROCK;TRACHYDACITE;;;;;CRETACEOUS;LOWER;;;;MINERAL / COMPONENT (INCL. GROUNDMASS);ZIRCON;;;;PRIMARY;;;;;;;;;;;;;;;;;;;;;;;;;;;;;;;;;;;;;;;;;;;;;;;;;;;;;;;;;;;;;;;;;;;;;;;;;;;;;;;;;;;;;;;;;;;;;;;;;;;;;;;;;;;;;;;;;;;;;;;;;;;;;;;;;;;;;;;;;;;;;;;;;;;;;;;;;;;;;;;;;;;;;;;;;;;;;;;700;Q_ICPMS_LA;;;1461;;;;;;;;;;;;;;;;;0.04951;;;;;;;;;;;;;;;;0.0221;0.14844;;;;;;;;;;;;;;;;;;;;;;;;;;;;;;;;;;;;;172;141;141;PB206_U238 AGE;;;;;;
2015;[19926] YANG WU-BIN (2015);samp. TW4;;CENTRAL ASIAN FOLDBELT - MESOZOIC / CHINA - MESOZOIC / HEILONGJIANG PROVINCE / MANITU FORMATION;TUQUAN;45.5386;121.1825;45.5386;121.1825;;;OUTCROP;;;SUBAERIAL;VOLCANIC ROCK;TRACHYDACITE;;;;;CRETACEOUS;LOWER;;;;MINERAL / COMPONENT (INCL. GROUNDMASS);ZIRCON;;;;PRIMARY;;;;;;;;;;;;;;;;;;;;;;;;;;;;;;;;;;;;;;;;;;;;;;;;;;;;;;;;;;;;;;;;;;;;;;;;;;;;;;;;;;;;;;;;;;;;;;;;;;;;;;;;;;;;;;;;;;;;;;;;;;;;;;;;;;;;;;;;;;;;;;;;;;;;;;;;;;;;;;;;;;;;;;;;;;;;;;;523;Q_ICPMS_LA;;;1395;;;;;;;;;;;;;;;;;0.0577;;;;;;;;;;;;;;;;0.02223;0.17896;;;;;;;;;;;;;;;;;;;;;;;;;;;;;;;;;;;;;518;167;142;PB206_U238 AGE;;;;;;
2015;[19926] YANG WU-BIN (2015);samp. TW4;;CENTRAL ASIAN FOLDBELT - MESOZOIC / CHINA - MESOZOIC / HEILONGJIANG PROVINCE / MANITU FORMATION;TUQUAN;45.5386;121.1825;45.5386;121.1825;;;OUTCROP;;;SUBAERIAL;VOLCANIC ROCK;TRACHYDACITE;;;;;CRETACEOUS;LOWER;;;;MINERAL / COMPONENT (INCL. GROUNDMASS);ZIRCON;;;;PRIMARY;;;;;;;;;;;;;;;;;;;;;;;;;;;;;;;;;;;;;;;;;;;;;;;;;;;;;;;;;;;;;;;;;;;;;;;;;;;;;;;;;;;;;;;;;;;;;;;;;;;;;;;;;;;;;;;;;;;;;;;;;;;;;;;;;;;;;;;;;;;;;;;;;;;;;;;;;;;;;;;;;;;;;;;;;;;;;;;1240;Q_ICPMS_LA;;;3853;;;;;;;;;;;;;;;;;0.04616;;;;;;;;;;;;;;;;0.02154;0.13741;;;;;;;;;;;;;;;;;;;;;;;;;;;;;;;;;;;;;6;131;137;PB206_U238 AGE;;;;;;
2015;[19926] YANG WU-BIN (2015);samp. TW4;;CENTRAL ASIAN FOLDBELT - MESOZOIC / CHINA - MESOZOIC / HEILONGJIANG PROVINCE / MANITU FORMATION;TUQUAN;45.5386;121.1825;45.5386;121.1825;;;OUTCROP;;;SUBAERIAL;VOLCANIC ROCK;TRACHYDACITE;;;;;CRETACEOUS;LOWER;;;;MINERAL / COMPONENT (INCL. GROUNDMASS);ZIRCON;;;;PRIMARY;;;;;;;;;;;;;;;;;;;;;;;;;;;;;;;;;;;;;;;;;;;;;;;;;;;;;;;;;;;;;;;;;;;;;;;;;;;;;;;;;;;;;;;;;;;;;;;;;;;;;;;;;;;;;;;;;;;;;;;;;;;;;;;;;;;;;;;;;;;;;;;;;;;;;;;;;;;;;;;;;;;;;;;;;;;;;;;835;Q_ICPMS_LA;;;1832;;;;;;;;;;;;;;;;;0.04837;;;;;;;;;;;;;;;;0.02227;0.14783;;;;;;;;;;;;;;;;;;;;;;;;;;;;;;;;;;;;;117;140;142;PB206_U238 AGE;;;;;;
2015;[19926] YANG WU-BIN (2015);samp. TW4;;CENTRAL ASIAN FOLDBELT - MESOZOIC / CHINA - MESOZOIC / HEILONGJIANG PROVINCE / MANITU FORMATION;TUQUAN;45.5386;121.1825;45.5386;121.1825;;;OUTCROP;;;SUBAERIAL;VOLCANIC ROCK;TRACHYDACITE;;;;;CRETACEOUS;LOWER;;;;MINERAL / COMPONENT (INCL. GROUNDMASS);ZIRCON;;;;PRIMARY;;;;;;;;;;;;;;;;;;;;;;;;;;;;;;;;;;;;;;;;;;;;;;;;;;;;;;;;;;;;;;;;;;;;;;;;;;;;;;;;;;;;;;;;;;;;;;;;;;;;;;;;;;;;;;;;;;;;;;;;;;;;;;;;;;;;;;;;;;;;;;;;;;;;;;;;;;;;;;;;;;;;;;;;;;;;;;;814;Q_ICPMS_LA;;;2263;;;;;;;;;;;;;;;;;0.04331;;;;;;;;;;;;;;;;0.02214;0.13187;;;;;;;;;;;;;;;;;;;;;;;;;;;;;;;;;;;;;;126;141;PB206_U238 AGE;;;;;;
2015;[19926] YANG WU-BIN (2015);samp. TW4;;CENTRAL ASIAN FOLDBELT - MESOZOIC / CHINA - MESOZOIC / HEILONGJIANG PROVINCE / MANITU FORMATION;TUQUAN;45.5386;121.1825;45.5386;121.1825;;;OUTCROP;;;SUBAERIAL;VOLCANIC ROCK;TRACHYDACITE;;;;;CRETACEOUS;LOWER;;;;MINERAL / COMPONENT (INCL. GROUNDMASS);ZIRCON;;;;PRIMARY;;;;;;;;;;;;;;;;;;;;;;;;;;;;;;;;;;;;;;;;;;;;;;;;;;;;;;;;;;;;;;;;;;;;;;;;;;;;;;;;;;;;;;;;;;;;;;;;;;;;;;;;;;;;;;;;;;;;;;;;;;;;;;;;;;;;;;;;;;;;;;;;;;;;;;;;;;;;;;;;;;;;;;;;;;;;;;;1138;Q_ICPMS_LA;;;3002;;;;;;;;;;;;;;;;;0.04491;;;;;;;;;;;;;;;;0.0219;0.13516;;;;;;;;;;;;;;;;;;;;;;;;;;;;;;;;;;;;;;129;140;PB206_U238 AGE;;;;;;
2015;[19926] YANG WU-BIN (2015);samp. TW4;;CENTRAL ASIAN FOLDBELT - MESOZOIC / CHINA - MESOZOIC / HEILONGJIANG PROVINCE / MANITU FORMATION;TUQUAN;45.5386;121.1825;45.5386;121.1825;;;OUTCROP;;;SUBAERIAL;VOLCANIC ROCK;TRACHYDACITE;;;;;CRETACEOUS;LOWER;;;;MINERAL / COMPONENT (INCL. GROUNDMASS);ZIRCON;;;;PRIMARY;;;;;;;;;;;;;;;;;;;;;;;;;;;;;;;;;;;;;;;;;;;;;;;;;;;;;;;;;;;;;;;;;;;;;;;;;;;;;;;;;;;;;;;;;;;;;;;;;;;;;;;;;;;;;;;;;;;;;;;;;;;;;;;;;;;;;;;;;;;;;;;;;;;;;;;;;;;;;;;;;;;;;;;;;;;;;;;1299;Q_ICPMS_LA;;;2943;;;;;;;;;;;;;;;;;0.04246;;;;;;;;;;;;;;;;0.02274;0.13267;;;;;;;;;;;;;;;;;;;;;;;;;;;;;;;;;;;;;;126;145;PB206_U238 AGE;;;;;;
2015;[19926] YANG WU-BIN (2015);samp. TW4;;CENTRAL ASIAN FOLDBELT - MESOZOIC / CHINA - MESOZOIC / HEILONGJIANG PROVINCE / MANITU FORMATION;TUQUAN;45.5386;121.1825;45.5386;121.1825;;;OUTCROP;;;SUBAERIAL;VOLCANIC ROCK;TRACHYDACITE;;;;;CRETACEOUS;LOWER;;;;MINERAL / COMPONENT (INCL. GROUNDMASS);ZIRCON;;;;PRIMARY;;;;;;;;;;;;;;;;;;;;;;;;;;;;;;;;;;;;;;;;;;;;;;;;;;;;;;;;;;;;;;;;;;;;;;;;;;;;;;;;;;;;;;;;;;;;;;;;;;;;;;;;;;;;;;;;;;;;;;;;;;;;;;;;;;;;;;;;;;;;;;;;;;;;;;;;;;;;;;;;;;;;;;;;;;;;;;;1538;Q_ICPMS_LA;;;3247;;;;;;;;;;;;;;;;;0.04162;;;;;;;;;;;;;;;;0.02168;0.1242;;;;;;;;;;;;;;;;;;;;;;;;;;;;;;;;;;;;;;119;138;PB206_U238 AGE;;;;;;
2015;[19926] YANG WU-BIN (2015);samp. TW4;;CENTRAL ASIAN FOLDBELT - MESOZOIC / CHINA - MESOZOIC / HEILONGJIANG PROVINCE / MANITU FORMATION;TUQUAN;45.5386;121.1825;45.5386;121.1825;;;OUTCROP;;;SUBAERIAL;VOLCANIC ROCK;TRACHYDACITE;;;;;CRETACEOUS;LOWER;;;;MINERAL / COMPONENT (INCL. GROUNDMASS);ZIRCON;;;;PRIMARY;;;;;;;;;;;;;;;;;;;;;;;;;;;;;;;;;;;;;;;;;;;;;;;;;;;;;;;;;;;;;;;;;;;;;;;;;;;;;;;;;;;;;;;;;;;;;;;;;;;;;;;;;;;;;;;;;;;;;;;;;;;;;;;;;;;;;;;;;;;;;;;;;;;;;;;;;;;;;;;;;;;;;;;;;;;;;;;496;Q_ICPMS_LA;;;1057;;;;;;;;;;;;;;;;;0.05162;;;;;;;;;;;;;;;;0.02133;0.15179;;;;;;;;;;;;;;;;;;;;;;;;;;;;;;;;;;;;;269;143;136;PB206_U238 AGE;;;;;;
2015;[19926] YANG WU-BIN (2015);samp. TW4;;CENTRAL ASIAN FOLDBELT - MESOZOIC / CHINA - MESOZOIC / HEILONGJIANG PROVINCE / MANITU FORMATION;TUQUAN;45.5386;121.1825;45.5386;121.1825;;;OUTCROP;;;SUBAERIAL;VOLCANIC ROCK;TRACHYDACITE;;;;;CRETACEOUS;LOWER;;;;MINERAL / COMPONENT (INCL. GROUNDMASS);ZIRCON;;;;PRIMARY;;;;;;;;;;;;;;;;;;;;;;;;;;;;;;;;;;;;;;;;;;;;;;;;;;;;;;;;;;;;;;;;;;;;;;;;;;;;;;;;;;;;;;;;;;;;;;;;;;;;;;;;;;;;;;;;;;;;;;;;;;;;;;;;;;;;;;;;;;;;;;;;;;;;;;;;;;;;;;;;;;;;;;;;;;;;;;;1072;Q_ICPMS_LA;;;1859;;;;;;;;;;;;;;;;;0.04772;;;;;;;;;;;;;;;;0.02115;0.13778;;;;;;;;;;;;;;;;;;;;;;;;;;;;;;;;;;;;;85;131;135;PB206_U238 AGE;;;;;;
2015;[19926] YANG WU-BIN (2015);samp. TW4;;CENTRAL ASIAN FOLDBELT - MESOZOIC / CHINA - MESOZOIC / HEILONGJIANG PROVINCE / MANITU FORMATION;TUQUAN;45.5386;121.1825;45.5386;121.1825;;;OUTCROP;;;SUBAERIAL;VOLCANIC ROCK;TRACHYDACITE;;;;;CRETACEOUS;LOWER;;;;MINERAL / COMPONENT (INCL. GROUNDMASS);ZIRCON;;;;PRIMARY;;;;;;;;;;;;;;;;;;;;;;;;;;;;;;;;;;;;;;;;;;;;;;;;;;;;;;;;;;;;;;;;;;;;;;;;;;;;;;;;;;;;;;;;;;;;;;;;;;;;;;;;;;;;;;;;;;;;;;;;;;;;;;;;;;;;;;;;;;;;;;;;;;;;;;;;;;;;;;;;;;;;;;;;;;;;;;;769;Q_ICPMS_LA;;;1840;;;;;;;;;;;;;;;;;0.04846;;;;;;;;;;;;;;;;0.02191;0.14652;;;;;;;;;;;;;;;;;;;;;;;;;;;;;;;;;;;;;122;139;140;PB206_U238 AGE;;;;;;
2015;[19926] YANG WU-BIN (2015);samp. TW4;;CENTRAL ASIAN FOLDBELT - MESOZOIC / CHINA - MESOZOIC / HEILONGJIANG PROVINCE / MANITU FORMATION;TUQUAN;45.5386;121.1825;45.5386;121.1825;;;OUTCROP;;;SUBAERIAL;VOLCANIC ROCK;TRACHYDACITE;;;;;CRETACEOUS;LOWER;;;;MINERAL / COMPONENT (INCL. GROUNDMASS);ZIRCON;;;;PRIMARY;;;;;;;;;;;;;;;;;;;;;;;;;;;;;;;;;;;;;;;;;;;;;;;;;;;;;;;;;;;;;;;;;;;;;;;;;;;;;;;;;;;;;;;;;;;;;;;;;;;;;;;;;;;;;;;;;;;;;;;;;;;;;;;;;;;;;;;;;;;;;;;;;;;;;;;;;;;;;;;;;;;;;;;;;;;;;;;1126;Q_ICPMS_LA;;;2099;;;;;;;;;;;;;;;;;0.05161;;;;;;;;;;;;;;;;0.02162;0.15514;;;;;;;;;;;;;;;;;;;;;;;;;;;;;;;;;;;;;268;146;138;PB206_U238 AGE;;;;;;
2015;[19926] YANG WU-BIN (2015);samp. TW4;;CENTRAL ASIAN FOLDBELT - MESOZOIC / CHINA - MESOZOIC / HEILONGJIANG PROVINCE / MANITU FORMATION;TUQUAN;45.5386;121.1825;45.5386;121.1825;;;OUTCROP;;;SUBAERIAL;VOLCANIC ROCK;TRACHYDACITE;;;;;CRETACEOUS;LOWER;;;;MINERAL / COMPONENT (INCL. GROUNDMASS);ZIRCON;;;;PRIMARY;;;;;;;;;;;;;;;;;;;;;;;;;;;;;;;;;;;;;;;;;;;;;;;;;;;;;;;;;;;;;;;;;;;;;;;;;;;;;;;;;;;;;;;;;;;;;;;;;;;;;;;;;;;;;;;;;;;;;;;;;;;;;;;;;;;;;;;;;;;;;;;;;;;;;;;;;;;;;;;;;;;;;;;;;;;;;;;624;Q_ICPMS_LA;;;1600;;;;;;;;;;;;;;;;;0.05039;;;;;;;;;;;;;;;;0.02185;0.1518;;;;;;;;;;;;;;;;;;;;;;;;;;;;;;;;;;;;;213;144;139;PB206_U238 AGE;;;;;;
2015;[19926] YANG WU-BIN (2015);samp. TW4;;CENTRAL ASIAN FOLDBELT - MESOZOIC / CHINA - MESOZOIC / HEILONGJIANG PROVINCE / MANITU FORMATION;TUQUAN;45.5386;121.1825;45.5386;121.1825;;;OUTCROP;;;SUBAERIAL;VOLCANIC ROCK;TRACHYDACITE;;;;;CRETACEOUS;LOWER;;;;MINERAL / COMPONENT (INCL. GROUNDMASS);ZIRCON;;;;PRIMARY;;;;;;;;;;;;;;;;;;;;;;;;;;;;;;;;;;;;;;;;;;;;;;;;;;;;;;;;;;;;;;;;;;;;;;;;;;;;;;;;;;;;;;;;;;;;;;;;;;;;;;;;;;;;;;;;;;;;;;;;;;;;;;;;;;;;;;;;;;;;;;;;;;;;;;;;;;;;;;;;;;;;;;;;;;;;;;;1069;Q_ICPMS_LA;;;2351;;;;;;;;;;;;;;;;;0.05162;;;;;;;;;;;;;;;;0.02219;0.15891;;;;;;;;;;;;;;;;;;;;;;;;;;;;;;;;;;;;;269;150;141;PB206_U238 AGE;;;;;;
2015;[19926] YANG WU-BIN (2015);samp. TW4;;CENTRAL ASIAN FOLDBELT - MESOZOIC / CHINA - MESOZOIC / HEILONGJIANG PROVINCE / MANITU FORMATION;TUQUAN;45.5386;121.1825;45.5386;121.1825;;;OUTCROP;;;SUBAERIAL;VOLCANIC ROCK;TRACHYDACITE;;;;;CRETACEOUS;LOWER;;;;MINERAL / COMPONENT (INCL. GROUNDMASS);ZIRCON;;;;PRIMARY;;;;;;;;;;;;;;;;;;;;;;;;;;;;;;;;;;;;;;;;;;;;;;;;;;;;;;;;;;;;;;;;;;;;;;;;;;;;;;;;;;;;;;;;;;;;;;;;;;;;;;;;;;;;;;;;;;;;;;;;;;;;;;;;;;;;;;;;;;;;;;;;;;;;;;;;;;;;;;;;;;;;;;;;;;;;;;;867;Q_ICPMS_LA;;;2051;;;;;;;;;;;;;;;;;0.04965;;;;;;;;;;;;;;;;0.02234;0.15345;;;;;;;;;;;;;;;;;;;;;;;;;;;;;;;;;;;;;179;145;142;PB206_U238 AGE;;;;;;
2015;[19926] YANG WU-BIN (2015);samp. TW4;;CENTRAL ASIAN FOLDBELT - MESOZOIC / CHINA - MESOZOIC / HEILONGJIANG PROVINCE / MANITU FORMATION;TUQUAN;45.5386;121.1825;45.5386;121.1825;;;OUTCROP;;;SUBAERIAL;VOLCANIC ROCK;TRACHYDACITE;;;;;CRETACEOUS;LOWER;;;;MINERAL / COMPONENT (INCL. GROUNDMASS);ZIRCON;;;;PRIMARY;;;;;;;;;;;;;;;;;;;;;;;;;;;;;;;;;;;;;;;;;;;;;;;;;;;;;;;;;;;;;;;;;;;;;;;;;;;;;;;;;;;;;;;;;;;;;;;;;;;;;;;;;;;;;;;;;;;;;;;;;;;;;;;;;;;;;;;;;;;;;;;;;;;;;;;;;;;;;;;;;;;;;;;;;;;;;;;601;Q_ICPMS_LA;;;1493;;;;;;;;;;;;;;;;;0.05006;;;;;;;;;;;;;;;;0.02321;0.16024;;;;;;;;;;;;;;;;;;;;;;;;;;;;;;;;;;;;;198;151;148;PB206_U238 AGE;;;;;;
2015;[19926] YANG WU-BIN (2015);samp. TW9;;CENTRAL ASIAN FOLDBELT - MESOZOIC / CHINA - MESOZOIC / HEILONGJIANG PROVINCE / MANITU FORMATION;TUQUAN;45.6325;121.3817;45.6325;121.3817;;;OUTCROP;;;SUBAERIAL;VOLCANIC ROCK;TRACHYDACITE;;;;;CRETACEOUS;LOWER;;;;MINERAL / COMPONENT (INCL. GROUNDMASS);ZIRCON;;;;PRIMARY;;;;;;;;;;;;;;;;;;;;;;;;;;;;;;;;;;;;;;;;;;;;;;;;;;;;;;;;;;;;;;;;;;;;;;;;;;;;;;;;;;;;;;;;;;;;;;;;;;;;;;;;;;;;;;;;;;;;;;;;;;;;;;;;;;;;;;;;;;;;;;;;;;;;;;;;;;;;;;;;;;;;;;;;;;;;;;;1303;Q_ICPMS_LA;;;4031;;;;;;;;;;;;;;;;;0.05142;;;;;;;;;;;;;;;;0.02529;0.18053;;;;;;;;;;;;;;;;;;;;;;;;;;;;;;;;;;;;;260;169;161;PB206_U238 AGE;;;;;;
2015;[19926] YANG WU-BIN (2015);samp. TW9;;CENTRAL ASIAN FOLDBELT - MESOZOIC / CHINA - MESOZOIC / HEILONGJIANG PROVINCE / MANITU FORMATION;TUQUAN;45.6325;121.3817;45.6325;121.3817;;;OUTCROP;;;SUBAERIAL;VOLCANIC ROCK;TRACHYDACITE;;;;;CRETACEOUS;LOWER;;;;MINERAL / COMPONENT (INCL. GROUNDMASS);ZIRCON;;;;PRIMARY;;;;;;;;;;;;;;;;;;;;;;;;;;;;;;;;;;;;;;;;;;;;;;;;;;;;;;;;;;;;;;;;;;;;;;;;;;;;;;;;;;;;;;;;;;;;;;;;;;;;;;;;;;;;;;;;;;;;;;;;;;;;;;;;;;;;;;;;;;;;;;;;;;;;;;;;;;;;;;;;;;;;;;;;;;;;;;;892;Q_ICPMS_LA;;;1840;;;;;;;;;;;;;;;;;0.05693;;;;;;;;;;;;;;;;0.02303;0.17939;;;;;;;;;;;;;;;;;;;;;;;;;;;;;;;;;;;;;489;168;147;PB206_U238 AGE;;;;;;
2015;[19926] YANG WU-BIN (2015);samp. TW9;;CENTRAL ASIAN FOLDBELT - MESOZOIC / CHINA - MESOZOIC / HEILONGJIANG PROVINCE / MANITU FORMATION;TUQUAN;45.6325;121.3817;45.6325;121.3817;;;OUTCROP;;;SUBAERIAL;VOLCANIC ROCK;TRACHYDACITE;;;;;CRETACEOUS;LOWER;;;;MINERAL / COMPONENT (INCL. GROUNDMASS);ZIRCON;;;;PRIMARY;;;;;;;;;;;;;;;;;;;;;;;;;;;;;;;;;;;;;;;;;;;;;;;;;;;;;;;;;;;;;;;;;;;;;;;;;;;;;;;;;;;;;;;;;;;;;;;;;;;;;;;;;;;;;;;;;;;;;;;;;;;;;;;;;;;;;;;;;;;;;;;;;;;;;;;;;;;;;;;;;;;;;;;;;;;;;;;2676;Q_ICPMS_LA;;;3823;;;;;;;;;;;;;;;;;0.05416;;;;;;;;;;;;;;;;0.02167;0.16182;;;;;;;;;;;;;;;;;;;;;;;;;;;;;;;;;;;;;378;152;138;PB206_U238 AGE;;;;;;