Year;CITATION;SAMPLE NAME;UNIQUE_ID;LOCATION;LOCATION COMMENT;LATITUDE (MIN.);LONGITUDE (MIN.);LATITUDE (MAX.);LONGITUDE (MAX.);ELEVATION (MIN.);ELEVATION (MAX.);SAMPLING TECHNIQUE;DRILLING DEPTH (MIN.);DRILLING DEPTH (MAX.);LAND/SEA (SAMPLING);ROCK TYPE;ROCK NAME;ROCK TEXTURE;SAMPLE COMMENT;AGE (MIN.);AGE (MAX.);GEOLOGICAL AGE;GEOLOGICAL AGE PREFIX;ERUPTION YEAR;ALTERATION;ALTERATION TYPE;TYPE OF MATERIAL;MINERAL / COMPONENT;SPOT (MINERAL);CRYSTAL;RIM / CORE (MINERAL GRAINS);PRIMARY/SECONDARY;INCLUSION TYPE;SPOT (INCLUSION);MINERAL (INCLUSION);RIM / CORE (INCLUSION);HOSTMINERAL (INCLUSION);HEATING;HEATING TEMPERATURE (?C);SIO2(WT%);TIO2(WT%);ZRO2(WT%);B2O3(WT%);AL2O3(WT%);CR2O3(WT%);LA2O3(WT%);CE2O3(WT%);Y2O3(WT%);V2O3(WT%);NB2O3(WT%);TA2O5(WT%);WO3(WT%);FE2O3T(WT%);FE2O3(WT%);FEOT(WT%);FEO(WT%);CAO(WT%);MGO(WT%);MNO(WT%);BAO(WT%);SRO(WT%);NIO(WT%);ZNO(WT%);CS2O(WT%);RB2O(WT%);K2O(WT%);;;;NA2O(WT%);P2O5(WT%);H2O(WT%);;;;H2OP(WT%);H2OM(WT%);CO2(WT%);C(WT%);F(WT%);CL(WT%);SO2(WT%);SO3(WT%);S(WT%);LOI(WT%);AL(WT%);TI(WT%);FE(WT%);MG(WT%);CA(WT%);K(WT%);NA(WT%);LI(PPM);BE(PPM);B(PPM);C(PPM);F(PPM);NA(PPM);MG(PPM);AL(PPM);P(PPM);S(PPM);CL(PPM);AR40(AT/G);AR40(CCMSTP/G);AR40(MOL/G);AR40(PPB);K(PPM);CA(PPM);SC(PPM);;;;TI(PPM);;;;V(PPM);CR(PPM);MN(PPM);FE(PPM);CO(PPM);NI(PPM);CU(PPM);ZN(PPM);GA(PPM);GE(PPM);AS(PPM);SE(PPM);BR(PPM);RB(PPM): altern. values or methods;;;;SR(PPM): altern. values or methods;;;;Y(PPM): altern. values or methods;;;;ZR(PPM): altern. values or methods;;;;NB(PPM): altern. values or methods;;;;MO(PPM): altern. values or methods;;;;AG(PPM);CD(PPM);IN(PPM);SN(PPM);SB(PPM);TE(PPM);CS(PPM);BA(PPM): altern. values or methods;;;;LA(PPM): altern. values or methods;;;;CE(PPM): altern. values or methods;;;;PR(PPM);ND(PPM): altern. values or methods;;;;SM(PPM): altern. values or methods;;;;EU(PPM);GD(PPM);TB(PPM);DY(PPM);HO(PPM);ER(PPM);TM(PPM);YB(PPM);LU(PPM);HF(PPM);TA(PPM);W(PPM);RE(PPM);AU(PPM);AU(PPB);HG(PPM);HG(PPB);TL(PPM);PB(PPM): altern. values or methods;;;;PB206(PPM);BI(PPM);TH(PPM): altern. values or methods;;;;U(PPM);ND143_ND144;ND143_ND144_INI;EPSILON_ND;EPSILON_ND_INI;SM147_ND144;SR87_SR86;SR87_SR86_INI;EPSILON_SR;EPSILON_SR_INI;RB87_SR86;PB206_PB204;PB206_PB204_INI;PB206_PB207;PB206_PB208;PB207_PB204;PB207_PB204_INI;PB207_PB206;PB208_PB204;PB208_PB204_INI;PB208_PB206;HF176_HF177;HF176_HF177_INI;EPSILON_HF_INI;LU176_HF177;YB176_HF177;AR36_AR39;AR36_AR40;AR37_AR39;AR38_AR39;AR39_AR40;AR40_AR36;AR40_AR39;PB206_U238;PB207_U235;PB208_TH232;TH232_PB204;TH232_U238;U235_PB204;U238_PB204;U238_PB206;D7LI(VS LSVEC);D18O(PER MIL);D18O(VS SMOW);D18O(VS VSMOW);D56FE(VS IRMM-014);D57FE(VS IRMM-014);DD(VS SMOW);ALBITE(MOL%);ANORTHITE(MOL%);CA OLIVINE(MOL%);ENSTATITE(MOL%);FAYALITE(MOL%);FORSTERITE(MOL%);FERROSILITE(MOL%);ORTHOCLASE(MOL%);TEPHROITE(MOL%);ULVOSPINEL(MOL%);WOLLASTONITE(MOL%);AGE(KA): altern. values or methods;;;;AGE(MA): altern. values or methods;;;;;;;;AGE_PB207_PB206(MA);AGE_PB207_U235(MA);AGE_PB206_U238(MA): altern. values or methods;;;;;;AGE_PB208_TH232(MA);
2018;[21910] LECHMANN A. (2018);samp. 60;;ANATOLIA-IRAN BELT / IRAN / LESSER CAUCASUS;;38.4151;45.5672;38.4151;45.5672;;;OUTCROP;;;SUBAERIAL;VOLCANIC ROCK;TRACHYDACITE;HYPABYSSAL, HOLOCRYSTALLINE, PORPHYRITIC;;;;MIOCENE;;;;;MINERAL / COMPONENT (INCL. GROUNDMASS);ZIRCON;AZ14-060_F_45;;;PRIMARY;;;;;;;;;;;;;;;;;;;;;;;;;;;;;;;;;;;;;;;;;;;;;;;;;;;;;;;;;;;;;;;;;;;;;;;;;;;;;;;;;;;;;;;;;;;;;;;;;;;;;;;;;;;;;;;;;;;;;;;;;;;;;;;;;;;;;;;;;;;;;;;;;;;;;;;;;;;;;;;;;;;;;;;;;;;;;;;30.9;ICPMS_LA;;;181.8;;;;;;;;;;;;;;;;;0.0487;;;;;;;;;;;;;;;;0.001857;0.012;;;;;;;;;;;;;;;;;;;;;;;;;;;;;12.1;PB207_U235  AGE;11.96;PB206_U238  AGE;;;;;12.0623262126743;;;;;;;;;
2018;[21910] LECHMANN A. (2018);samp. 60;;ANATOLIA-IRAN BELT / IRAN / LESSER CAUCASUS;;38.4151;45.5672;38.4151;45.5672;;;OUTCROP;;;SUBAERIAL;VOLCANIC ROCK;TRACHYDACITE;HYPABYSSAL, HOLOCRYSTALLINE, PORPHYRITIC;;;;MIOCENE;;;;;MINERAL / COMPONENT (INCL. GROUNDMASS);ZIRCON;AZ14-060_F_46;;;PRIMARY;;;;;;;;;;;;;;;;;;;;;;;;;;;;;;;;;;;;;;;;;;;;;;;;;;;;;;;;;;;;;;;;;;;;;;;;;;;;;;;;;;;;;;;;;;;;;;;;;;;;;;;;;;;;;;;;;;;;;;;;;;;;;;;;;;;;;;;;;;;;;;;;;;;;;;;;;;;;;;;;;;;;;;;;;;;;;;;86.4;ICPMS_LA;;;438;;;;;;;;;;;;;;;;;0.0485;;;;;;;;;;;;;;;;0.001862;0.013;;;;;;;;;;;;;;;;;;;;;;;;;;;;;13.1;PB207_U235  AGE;11.99;PB206_U238  AGE;;;;;12.0935265492518;;;;;;;;;
2018;[21910] LECHMANN A. (2018);samp. 60;;ANATOLIA-IRAN BELT / IRAN / LESSER CAUCASUS;;38.4151;45.5672;38.4151;45.5672;;;OUTCROP;;;SUBAERIAL;VOLCANIC ROCK;TRACHYDACITE;HYPABYSSAL, HOLOCRYSTALLINE, PORPHYRITIC;;;;MIOCENE;;;;;MINERAL / COMPONENT (INCL. GROUNDMASS);ZIRCON;AZ14-060_F_47;;;PRIMARY;;;;;;;;;;;;;;;;;;;;;;;;;;;;;;;;;;;;;;;;;;;;;;;;;;;;;;;;;;;;;;;;;;;;;;;;;;;;;;;;;;;;;;;;;;;;;;;;;;;;;;;;;;;;;;;;;;;;;;;;;;;;;;;;;;;;;;;;;;;;;;;;;;;;;;;;;;;;;;;;;;;;;;;;;;;;;;;95.7;ICPMS_LA;;;343;;;;;;;;;;;;;;;;;0.0442;;;;;;;;;;;;;;;;0.001868;0.01126;;;;;;;;;;;;;;;;;;;;;;;;;;;;;11.37;PB207_U235  AGE;12.03;PB206_U238  AGE;;;;;12.1290158349875;;;;;;;;;
2018;[21910] LECHMANN A. (2018);samp. 60;;ANATOLIA-IRAN BELT / IRAN / LESSER CAUCASUS;;38.4151;45.5672;38.4151;45.5672;;;OUTCROP;;;SUBAERIAL;VOLCANIC ROCK;TRACHYDACITE;HYPABYSSAL, HOLOCRYSTALLINE, PORPHYRITIC;;;;MIOCENE;;;;;MINERAL / COMPONENT (INCL. GROUNDMASS);ZIRCON;AZ14-060_F_48;;;PRIMARY;;;;;;;;;;;;;;;;;;;;;;;;;;;;;;;;;;;;;;;;;;;;;;;;;;;;;;;;;;;;;;;;;;;;;;;;;;;;;;;;;;;;;;;;;;;;;;;;;;;;;;;;;;;;;;;;;;;;;;;;;;;;;;;;;;;;;;;;;;;;;;;;;;;;;;;;;;;;;;;;;;;;;;;;;;;;;;;293.5;ICPMS_LA;;;789;;;;;;;;;;;;;;;;;0.0491;;;;;;;;;;;;;;;;0.001939;0.0134;;;;;;;;;;;;;;;;;;;;;;;;;;;;;13.5;PB207_U235  AGE;12.49;PB206_U238  AGE;;;;;12.5822559014942;;;;;;;;;
2018;[21910] LECHMANN A. (2018);samp. 60;;ANATOLIA-IRAN BELT / IRAN / LESSER CAUCASUS;;38.4151;45.5672;38.4151;45.5672;;;OUTCROP;;;SUBAERIAL;VOLCANIC ROCK;TRACHYDACITE;HYPABYSSAL, HOLOCRYSTALLINE, PORPHYRITIC;;;;MIOCENE;;;;;MINERAL / COMPONENT (INCL. GROUNDMASS);ZIRCON;AZ14-060_F_49;;;PRIMARY;;;;;;;;;;;;;;;;;;;;;;;;;;;;;;;;;;;;;;;;;;;;;;;;;;;;;;;;;;;;;;;;;;;;;;;;;;;;;;;;;;;;;;;;;;;;;;;;;;;;;;;;;;;;;;;;;;;;;;;;;;;;;;;;;;;;;;;;;;;;;;;;;;;;;;;;;;;;;;;;;;;;;;;;;;;;;;;73.8;ICPMS_LA;;;341;;;;;;;;;;;;;;;;;0.0488;;;;;;;;;;;;;;;;0.001855;0.01238;;;;;;;;;;;;;;;;;;;;;;;;;;;;;12.49;PB207_U235  AGE;11.95;PB206_U238  AGE;;;;;12.0475122161659;;;;;;;;;
2018;[21910] LECHMANN A. (2018);samp. 60;;ANATOLIA-IRAN BELT / IRAN / LESSER CAUCASUS;;38.4151;45.5672;38.4151;45.5672;;;OUTCROP;;;SUBAERIAL;VOLCANIC ROCK;TRACHYDACITE;HYPABYSSAL, HOLOCRYSTALLINE, PORPHYRITIC;;;;MIOCENE;;;;;MINERAL / COMPONENT (INCL. GROUNDMASS);ZIRCON;AZ14-060_F_50;;;PRIMARY;;;;;;;;;;;;;;;;;;;;;;;;;;;;;;;;;;;;;;;;;;;;;;;;;;;;;;;;;;;;;;;;;;;;;;;;;;;;;;;;;;;;;;;;;;;;;;;;;;;;;;;;;;;;;;;;;;;;;;;;;;;;;;;;;;;;;;;;;;;;;;;;;;;;;;;;;;;;;;;;;;;;;;;;;;;;;;;71.1;ICPMS_LA;;;292.6;;;;;;;;;;;;;;;;;0.0477;;;;;;;;;;;;;;;;0.001896;0.0124;;;;;;;;;;;;;;;;;;;;;;;;;;;;;12.5;PB207_U235  AGE;12.21;PB206_U238  AGE;;;;;12.3103160549603;;;;;;;;;
2018;[21910] LECHMANN A. (2018);samp. 60;;ANATOLIA-IRAN BELT / IRAN / LESSER CAUCASUS;;38.4151;45.5672;38.4151;45.5672;;;OUTCROP;;;SUBAERIAL;VOLCANIC ROCK;TRACHYDACITE;HYPABYSSAL, HOLOCRYSTALLINE, PORPHYRITIC;;;;MIOCENE;;;;;MINERAL / COMPONENT (INCL. GROUNDMASS);ZIRCON;AZ14-060_F_51;;;PRIMARY;;;;;;;;;;;;;;;;;;;;;;;;;;;;;;;;;;;;;;;;;;;;;;;;;;;;;;;;;;;;;;;;;;;;;;;;;;;;;;;;;;;;;;;;;;;;;;;;;;;;;;;;;;;;;;;;;;;;;;;;;;;;;;;;;;;;;;;;;;;;;;;;;;;;;;;;;;;;;;;;;;;;;;;;;;;;;;;70.5;ICPMS_LA;;;338.4;;;;;;;;;;;;;;;;;0.05;;;;;;;;;;;;;;;;0.001896;0.0134;;;;;;;;;;;;;;;;;;;;;;;;;;;;;13.5;PB207_U235  AGE;12.21;PB206_U238  AGE;;;;;12.3116896734819;;;;;;;;;
2018;[21910] LECHMANN A. (2018);samp. 60;;ANATOLIA-IRAN BELT / IRAN / LESSER CAUCASUS;;38.4151;45.5672;38.4151;45.5672;;;OUTCROP;;;SUBAERIAL;VOLCANIC ROCK;TRACHYDACITE;HYPABYSSAL, HOLOCRYSTALLINE, PORPHYRITIC;;;;MIOCENE;;;;;MINERAL / COMPONENT (INCL. GROUNDMASS);ZIRCON;AZ14-060_F_52;;;PRIMARY;;;;;;;;;;;;;;;;;;;;;;;;;;;;;;;;;;;;;;;;;;;;;;;;;;;;;;;;;;;;;;;;;;;;;;;;;;;;;;;;;;;;;;;;;;;;;;;;;;;;;;;;;;;;;;;;;;;;;;;;;;;;;;;;;;;;;;;;;;;;;;;;;;;;;;;;;;;;;;;;;;;;;;;;;;;;;;;242;ICPMS_LA;;;763;;;;;;;;;;;;;;;;;0.0472;;;;;;;;;;;;;;;;0.001995;0.01311;;;;;;;;;;;;;;;;;;;;;;;;;;;;;13.22;PB207_U235  AGE;12.85;PB206_U238  AGE;;;;;12.944406785329;;;;;;;;;
2018;[21910] LECHMANN A. (2018);samp. 60;;ANATOLIA-IRAN BELT / IRAN / LESSER CAUCASUS;;38.4151;45.5672;38.4151;45.5672;;;OUTCROP;;;SUBAERIAL;VOLCANIC ROCK;TRACHYDACITE;HYPABYSSAL, HOLOCRYSTALLINE, PORPHYRITIC;;;;MIOCENE;;;;;MINERAL / COMPONENT (INCL. GROUNDMASS);ZIRCON;AZ14-060_F_53;;;PRIMARY;;;;;;;;;;;;;;;;;;;;;;;;;;;;;;;;;;;;;;;;;;;;;;;;;;;;;;;;;;;;;;;;;;;;;;;;;;;;;;;;;;;;;;;;;;;;;;;;;;;;;;;;;;;;;;;;;;;;;;;;;;;;;;;;;;;;;;;;;;;;;;;;;;;;;;;;;;;;;;;;;;;;;;;;;;;;;;;46.7;ICPMS_LA;;;296;;;;;;;;;;;;;;;;;0.0492;;;;;;;;;;;;;;;;0.001851;0.01256;;;;;;;;;;;;;;;;;;;;;;;;;;;;;12.67;PB207_U235  AGE;11.92;PB206_U238  AGE;;;;;12.0240346442815;;;;;;;;;