Year;CITATION;SAMPLE NAME;UNIQUE_ID;LOCATION;LOCATION COMMENT;LATITUDE (MIN.);LONGITUDE (MIN.);LATITUDE (MAX.);LONGITUDE (MAX.);ELEVATION (MIN.);ELEVATION (MAX.);SAMPLING TECHNIQUE;DRILLING DEPTH (MIN.);DRILLING DEPTH (MAX.);LAND/SEA (SAMPLING);ROCK TYPE;ROCK NAME;ROCK TEXTURE;SAMPLE COMMENT;AGE (MIN.);AGE (MAX.);GEOLOGICAL AGE;GEOLOGICAL AGE PREFIX;ERUPTION YEAR;ALTERATION;ALTERATION TYPE;TYPE OF MATERIAL;MINERAL / COMPONENT;SPOT (MINERAL);CRYSTAL;RIM / CORE (MINERAL GRAINS);PRIMARY/SECONDARY;INCLUSION TYPE;SPOT (INCLUSION);MINERAL (INCLUSION);RIM / CORE (INCLUSION);HOSTMINERAL (INCLUSION);HEATING;HEATING TEMPERATURE (?C);SIO2(WT%);TIO2(WT%);ZRO2(WT%);B2O3(WT%);AL2O3(WT%);CR2O3(WT%);LA2O3(WT%);CE2O3(WT%);Y2O3(WT%);V2O3(WT%);NB2O3(WT%);TA2O5(WT%);WO3(WT%);FE2O3T(WT%);FE2O3(WT%);FEOT(WT%);FEO(WT%);CAO(WT%);MGO(WT%);MNO(WT%);BAO(WT%);SRO(WT%);NIO(WT%);ZNO(WT%);CS2O(WT%);RB2O(WT%);K2O(WT%);;;;NA2O(WT%);P2O5(WT%);H2O(WT%);;;;H2OP(WT%);H2OM(WT%);CO2(WT%);C(WT%);F(WT%);CL(WT%);SO2(WT%);SO3(WT%);S(WT%);LOI(WT%);AL(WT%);TI(WT%);FE(WT%);MG(WT%);CA(WT%);K(WT%);NA(WT%);LI(PPM);BE(PPM);B(PPM);C(PPM);F(PPM);NA(PPM);MG(PPM);AL(PPM);P(PPM);S(PPM);CL(PPM);AR40(AT/G);AR40(CCMSTP/G);AR40(MOL/G);AR40(PPB);K(PPM);CA(PPM);SC(PPM);;;;TI(PPM);;;;V(PPM);CR(PPM);MN(PPM);FE(PPM);CO(PPM);NI(PPM);CU(PPM);ZN(PPM);GA(PPM);GE(PPM);AS(PPM);SE(PPM);BR(PPM);RB(PPM): altern. values or methods;;;;SR(PPM): altern. values or methods;;;;Y(PPM): altern. values or methods;;;;ZR(PPM): altern. values or methods;;;;NB(PPM): altern. values or methods;;;;MO(PPM): altern. values or methods;;;;AG(PPM);CD(PPM);IN(PPM);SN(PPM);SB(PPM);TE(PPM);CS(PPM);BA(PPM): altern. values or methods;;;;LA(PPM): altern. values or methods;;;;CE(PPM): altern. values or methods;;;;PR(PPM);ND(PPM): altern. values or methods;;;;SM(PPM): altern. values or methods;;;;EU(PPM);GD(PPM);TB(PPM);DY(PPM);HO(PPM);ER(PPM);TM(PPM);YB(PPM);LU(PPM);HF(PPM);TA(PPM);W(PPM);RE(PPM);AU(PPM);AU(PPB);HG(PPM);HG(PPB);TL(PPM);PB(PPM): altern. values or methods;;;;PB206(PPM);BI(PPM);TH(PPM): altern. values or methods;;;;U(PPM);ND143_ND144;ND143_ND144_INI;EPSILON_ND;EPSILON_ND_INI;SM147_ND144;SR87_SR86;SR87_SR86_INI;EPSILON_SR;EPSILON_SR_INI;RB87_SR86;PB206_PB204;PB206_PB204_INI;PB206_PB207;PB206_PB208;PB207_PB204;PB207_PB204_INI;PB207_PB206;PB208_PB204;PB208_PB204_INI;PB208_PB206;HF176_HF177;HF176_HF177_INI;EPSILON_HF_INI;LU176_HF177;YB176_HF177;AR36_AR39;AR36_AR40;AR37_AR39;AR38_AR39;AR39_AR40;AR40_AR36;AR40_AR39;PB206_U238;PB207_U235;PB208_TH232;TH232_PB204;TH232_U238;U235_PB204;U238_PB204;U238_PB206;D7LI(VS LSVEC);D18O(PER MIL);D18O(VS SMOW);D18O(VS VSMOW);D56FE(VS IRMM-014);D57FE(VS IRMM-014);DD(VS SMOW);ALBITE(MOL%);ANORTHITE(MOL%);CA OLIVINE(MOL%);ENSTATITE(MOL%);FAYALITE(MOL%);FORSTERITE(MOL%);FERROSILITE(MOL%);ORTHOCLASE(MOL%);TEPHROITE(MOL%);ULVOSPINEL(MOL%);WOLLASTONITE(MOL%);AGE(KA): altern. values or methods;;;;AGE(MA): altern. values or methods;;;;;;;;AGE_PB207_PB206(MA);AGE_PB207_U235(MA);AGE_PB206_U238(MA): altern. values or methods;;;;;;AGE_PB208_TH232(MA);
2016;[20008] GAO XIN-YU (2016);samp. JGT-30;;CENTRAL ASIAN FOLDBELT - MESOZOIC / CHINA - MESOZOIC / ANHUI PROVINCE;JINGANGTAI, NORTH HUAIYANG;31.75;115.75;31.75;115.75;;;OUTCROP;;;SUBAERIAL;VOLCANIC ROCK;TRACHYDACITE;;;;;CRETACEOUS;LOWER;;;;WHOLE ROCK;;;;;;;;;;;;;65.6;0.43;;;16.19;;;;;;;;;2.65;;;;2.45;0.77;0.05;;;;;;;4.66;XRF;;;4.15;0.1;;;;;;;;;;;;;;2.42;;;;;;;;;;;;;;;;;;;;;;;;;;;;;;;;;;20.6;;;;4.83;;;;;;;;128;ICPMS;;;460;ICPMS;;;17.8;ICPMS;;;220;ICPMS;;;12.6;ICPMS;;;;;;;;;;;;;;2080;ICPMS;;;48.2;ICPMS;;;81.9;ICPMS;;;8.96;29.4;ICPMS;;;4.68;ICPMS;;;1.13;3.8;0.59;2.88;0.57;1.69;0.24;1.7;0.25;5.41;0.85;;;;;;;;;;;;;;16.4;ICPMS;;;3.28;;;;;;;;;;;;;;;;;;;;;;;;;;;;;;;;;;;;;;;;;;;;;;;;;;;;;;;;;;;;;;;;;;;;;;;;;;;;;;;;
2016;[20008] GAO XIN-YU (2016);samp. JGT-62;;CENTRAL ASIAN FOLDBELT - MESOZOIC / CHINA - MESOZOIC / ANHUI PROVINCE;JINGANGTAI, NORTH HUAIYANG;31.75;115.75;31.75;115.75;;;OUTCROP;;;SUBAERIAL;VOLCANIC ROCK;TRACHYDACITE;;;;;CRETACEOUS;LOWER;;;;WHOLE ROCK;;;;;;;;;;;;;64.68;0.55;;;15.56;;;;;;;;;3.93;;;;2.63;1.58;0.07;;;;;;;3.55;XRF;;;4.08;0.22;;;;;;;;;;;;;;2.66;;;;;;;;;;;;;;;;;;;;;;;;;;;;;;;;;;33.3;;;;12.5;;;;;;;;91.5;ICPMS;;;615;ICPMS;;;12.5;ICPMS;;;154;ICPMS;;;8.57;ICPMS;;;;;;;;;;;;;;1520;ICPMS;;;42.1;ICPMS;;;77.4;ICPMS;;;8.81;31;ICPMS;;;5.04;ICPMS;;;1.31;3.68;0.52;2.22;0.4;1.15;0.14;0.94;0.13;3.77;0.46;;;;;;;;;;;;;;7.67;ICPMS;;;1.78;;;;;;;;;;;;;;;;;;;;;;;;;;;;;;;;;;;;;;;;;;;;;;;;;;;;;;;;;;;;;;;;;;;;;;;;;;;;;;;;
2016;[20008] GAO XIN-YU (2016);samp. JGT-87;;CENTRAL ASIAN FOLDBELT - MESOZOIC / CHINA - MESOZOIC / ANHUI PROVINCE;JINGANGTAI, NORTH HUAIYANG;31.75;115.75;31.75;115.75;;;OUTCROP;;;SUBAERIAL;VOLCANIC ROCK;TRACHYDACITE;;;;;CRETACEOUS;LOWER;;;;WHOLE ROCK;;;;;;;;;;;;;62.08;0.6;;;17.78;;;;;;;;;4.62;;;;3.85;1.24;0.09;;;;;;;3.04;XRF;;;4.35;0.3;;;;;;;;;;;;;;1.51;;;;;;;;;;;;;;;;;;;;;;;;;;;;;;;;;;29.1;;;;6.7;;;;;;;;57.9;ICPMS;;;722;ICPMS;;;17.5;ICPMS;;;135;ICPMS;;;10.8;ICPMS;;;;;;;;;;;;;;1360;ICPMS;;;41.3;ICPMS;;;70.7;ICPMS;;;8.19;28.7;ICPMS;;;4.71;ICPMS;;;1.36;3.92;0.58;2.8;0.53;1.64;0.22;1.51;0.22;4.75;0.58;;;;;;;;;;;;;;7.23;ICPMS;;;1.15;0.511709;;;;0.0975;0.710198;;;;1.5704;;;;;;;;;;;;;;;;;;;;;;;;;;;;;;;;;;;;;;;;;;;;;;;;;;;;;;;;;;;;;;;;;;;;;;
2016;[20008] GAO XIN-YU (2016);samp. JGT-96;;CENTRAL ASIAN FOLDBELT - MESOZOIC / CHINA - MESOZOIC / ANHUI PROVINCE;JINGANGTAI, NORTH HUAIYANG;31.75;115.75;31.75;115.75;;;OUTCROP;;;SUBAERIAL;VOLCANIC ROCK;TRACHYDACITE;;;;;CRETACEOUS;LOWER;;;;WHOLE ROCK;;;;;;;;;;;;;67.73;0.48;;;15.26;;;;;;;;;3.59;;;;1.77;1.47;0.06;;;;;;;4.55;XRF;;;4.14;0.2;;;;;;;;;;;;;;1.38;;;;;;;;;;;;;;;;;;;;;;;;;;;;;;;;;;38.1;;;;13.9;;;;;;;;113;ICPMS;;;360;ICPMS;;;12.5;ICPMS;;;163;ICPMS;;;10.6;ICPMS;;;;;;;;;;;;;;1160;ICPMS;;;41.5;ICPMS;;;67;ICPMS;;;7.2;23.7;ICPMS;;;4.02;ICPMS;;;0.97;3.07;0.45;2.09;0.38;1.15;0.16;1.05;0.16;3.65;0.68;;;;;;;;;;;;;;13.4;ICPMS;;;1.75;;;;;;;;;;;;;;;;;;;;;;;;;;;;;;;;;;;;;;;;;;;;;;;;;;;;;;;;;;;;;;;;;;;;;;;;;;;;;;;;
2016;[20008] GAO XIN-YU (2016);samp. JGT-1;;CENTRAL ASIAN FOLDBELT - MESOZOIC / CHINA - MESOZOIC / ANHUI PROVINCE;JINGANGTAI, NORTH HUAIYANG;31.75;115.75;31.75;115.75;;;OUTCROP;;;SUBAERIAL;VOLCANIC ROCK;TRACHYDACITE;;;;;CRETACEOUS;LOWER;;;;MINERAL / COMPONENT (INCL. GROUNDMASS);ZIRCON;JGT-1-1;;;PRIMARY;;;;;;;;;;;;;;;;;;;;;;;;;;;;;;;;;;;;;;;;;;;;;;;;;;;;;;;;;;;;;;;;;;;;;;;;;;;;;;;;;;;;;;;;;;;;;;;;;;;;;;;;;;;;;;;;;;;;;;;;;;;;;;;;;;;;;;;;;;;;;;;;;;;;;;;;;;;;;;;;;;;;;;;;;;;;;;;201;ICPMS_LA;;;239;;;;;;;;;;;;;;;;;0.0468;;;;0.282216;;;0.000559;0.015924;;;;;;;;0.0198;0.127;;;;;;;;;;;;;;;;;;;;;;;;;;;;;;;;;;;;;35.3;122;126;PB206_U238 AGE;;;;;;
2016;[20008] GAO XIN-YU (2016);samp. JGT-1;;CENTRAL ASIAN FOLDBELT - MESOZOIC / CHINA - MESOZOIC / ANHUI PROVINCE;JINGANGTAI, NORTH HUAIYANG;31.75;115.75;31.75;115.75;;;OUTCROP;;;SUBAERIAL;VOLCANIC ROCK;TRACHYDACITE;;;;;CRETACEOUS;LOWER;;;;MINERAL / COMPONENT (INCL. GROUNDMASS);ZIRCON;JGT-1-2;;;PRIMARY;;;;;;;;;;;;;;;;;;;;;;;;;;;;;;;;;;;;;;;;;;;;;;;;;;;;;;;;;;;;;;;;;;;;;;;;;;;;;;;;;;;;;;;;;;;;;;;;;;;;;;;;;;;;;;;;;;;;;;;;;;;;;;;;;;;;;;;;;;;;;;;;;;;;;;;;;;;;;;;;;;;;;;;;;;;;;;;436;ICPMS_LA;;;452;;;;;;;;;;;;;;;;;0.0772;;;;0.282207;;;0.000626;0.017767;;;;;;;;0.0203;0.219;;;;;;;;;;;;;;;;;;;;;;;;;;;;;;;;;;;;;1128;201;129;PB206_U238 AGE;;;;;;
2016;[20008] GAO XIN-YU (2016);samp. JGT-1;;CENTRAL ASIAN FOLDBELT - MESOZOIC / CHINA - MESOZOIC / ANHUI PROVINCE;JINGANGTAI, NORTH HUAIYANG;31.75;115.75;31.75;115.75;;;OUTCROP;;;SUBAERIAL;VOLCANIC ROCK;TRACHYDACITE;;;;;CRETACEOUS;LOWER;;;;MINERAL / COMPONENT (INCL. GROUNDMASS);ZIRCON;JGT-1-3;;;PRIMARY;;;;;;;;;;;;;;;;;;;;;;;;;;;;;;;;;;;;;;;;;;;;;;;;;;;;;;;;;;;;;;;;;;;;;;;;;;;;;;;;;;;;;;;;;;;;;;;;;;;;;;;;;;;;;;;;;;;;;;;;;;;;;;;;;;;;;;;;;;;;;;;;;;;;;;;;;;;;;;;;;;;;;;;;;;;;;;;132;ICPMS_LA;;;149;;;;;;;;;;;;;;;;;0.048;;;;0.282211;;;0.000556;0.015786;;;;;;;;0.0201;0.133;;;;;;;;;;;;;;;;;;;;;;;;;;;;;;;;;;;;;98;127;129;PB206_U238 AGE;;;;;;
2016;[20008] GAO XIN-YU (2016);samp. JGT-1;;CENTRAL ASIAN FOLDBELT - MESOZOIC / CHINA - MESOZOIC / ANHUI PROVINCE;JINGANGTAI, NORTH HUAIYANG;31.75;115.75;31.75;115.75;;;OUTCROP;;;SUBAERIAL;VOLCANIC ROCK;TRACHYDACITE;;;;;CRETACEOUS;LOWER;;;;MINERAL / COMPONENT (INCL. GROUNDMASS);ZIRCON;JGT-1-4;;;PRIMARY;;;;;;;;;;;;;;;;;;;;;;;;;;;;;;;;;;;;;;;;;;;;;;;;;;;;;;;;;;;;;;;;;;;;;;;;;;;;;;;;;;;;;;;;;;;;;;;;;;;;;;;;;;;;;;;;;;;;;;;;;;;;;;;;;;;;;;;;;;;;;;;;;;;;;;;;;;;;;;;;;;;;;;;;;;;;;;;224;ICPMS_LA;;;252;;;;;;;;;;;;;;;;;0.052;;;;0.282169;;;0.001187;0.036184;;;;;;;;0.0203;0.145;;;;;;;;;;;;;;;;;;;;;;;;;;;;;;;;;;;;;287;138;130;PB206_U238 AGE;;;;;;
2016;[20008] GAO XIN-YU (2016);samp. JGT-1;;CENTRAL ASIAN FOLDBELT - MESOZOIC / CHINA - MESOZOIC / ANHUI PROVINCE;JINGANGTAI, NORTH HUAIYANG;31.75;115.75;31.75;115.75;;;OUTCROP;;;SUBAERIAL;VOLCANIC ROCK;TRACHYDACITE;;;;;CRETACEOUS;LOWER;;;;MINERAL / COMPONENT (INCL. GROUNDMASS);ZIRCON;JGT-1-5;;;PRIMARY;;;;;;;;;;;;;;;;;;;;;;;;;;;;;;;;;;;;;;;;;;;;;;;;;;;;;;;;;;;;;;;;;;;;;;;;;;;;;;;;;;;;;;;;;;;;;;;;;;;;;;;;;;;;;;;;;;;;;;;;;;;;;;;;;;;;;;;;;;;;;;;;;;;;;;;;;;;;;;;;;;;;;;;;;;;;;;;437;ICPMS_LA;;;384;;;;;;;;;;;;;;;;;0.0558;;;;0.282152;;;0.001287;0.036741;;;;;;;;0.0207;0.159;;;;;;;;;;;;;;;;;;;;;;;;;;;;;;;;;;;;;456;150;132;PB206_U238 AGE;;;;;;
2016;[20008] GAO XIN-YU (2016);samp. JGT-1;;CENTRAL ASIAN FOLDBELT - MESOZOIC / CHINA - MESOZOIC / ANHUI PROVINCE;JINGANGTAI, NORTH HUAIYANG;31.75;115.75;31.75;115.75;;;OUTCROP;;;SUBAERIAL;VOLCANIC ROCK;TRACHYDACITE;;;;;CRETACEOUS;LOWER;;;;MINERAL / COMPONENT (INCL. GROUNDMASS);ZIRCON;JGT-1-6;;;PRIMARY;;;;;;;;;;;;;;;;;;;;;;;;;;;;;;;;;;;;;;;;;;;;;;;;;;;;;;;;;;;;;;;;;;;;;;;;;;;;;;;;;;;;;;;;;;;;;;;;;;;;;;;;;;;;;;;;;;;;;;;;;;;;;;;;;;;;;;;;;;;;;;;;;;;;;;;;;;;;;;;;;;;;;;;;;;;;;;;524;ICPMS_LA;;;265;;;;;;;;;;;;;;;;;0.224;;;;0.282144;;;0.002631;0.081992;;;;;;;;0.0284;0.961;;;;;;;;;;;;;;;;;;;;;;;;;;;;;;;;;;;;;3010;684;181;PB206_U238 AGE;;;;;;
2016;[20008] GAO XIN-YU (2016);samp. JGT-1;;CENTRAL ASIAN FOLDBELT - MESOZOIC / CHINA - MESOZOIC / ANHUI PROVINCE;JINGANGTAI, NORTH HUAIYANG;31.75;115.75;31.75;115.75;;;OUTCROP;;;SUBAERIAL;VOLCANIC ROCK;TRACHYDACITE;;;;;CRETACEOUS;LOWER;;;;MINERAL / COMPONENT (INCL. GROUNDMASS);ZIRCON;JGT-1-7;;;PRIMARY;;;;;;;;;;;;;;;;;;;;;;;;;;;;;;;;;;;;;;;;;;;;;;;;;;;;;;;;;;;;;;;;;;;;;;;;;;;;;;;;;;;;;;;;;;;;;;;;;;;;;;;;;;;;;;;;;;;;;;;;;;;;;;;;;;;;;;;;;;;;;;;;;;;;;;;;;;;;;;;;;;;;;;;;;;;;;;;320;ICPMS_LA;;;143;;;;;;;;;;;;;;;;;0.0475;;;;0.282254;;;0.000628;0.017981;;;;;;;;0.0201;0.132;;;;;;;;;;;;;;;;;;;;;;;;;;;;;;;;;;;;;76;125;129;PB206_U238 AGE;;;;;;
2016;[20008] GAO XIN-YU (2016);samp. JGT-1;;CENTRAL ASIAN FOLDBELT - MESOZOIC / CHINA - MESOZOIC / ANHUI PROVINCE;JINGANGTAI, NORTH HUAIYANG;31.75;115.75;31.75;115.75;;;OUTCROP;;;SUBAERIAL;VOLCANIC ROCK;TRACHYDACITE;;;;;CRETACEOUS;LOWER;;;;MINERAL / COMPONENT (INCL. GROUNDMASS);ZIRCON;JGT-1-8;;;PRIMARY;;;;;;;;;;;;;;;;;;;;;;;;;;;;;;;;;;;;;;;;;;;;;;;;;;;;;;;;;;;;;;;;;;;;;;;;;;;;;;;;;;;;;;;;;;;;;;;;;;;;;;;;;;;;;;;;;;;;;;;;;;;;;;;;;;;;;;;;;;;;;;;;;;;;;;;;;;;;;;;;;;;;;;;;;;;;;;;86.8;ICPMS_LA;;;73.9;;;;;;;;;;;;;;;;;0.0773;;;;0.282207;;;0.000995;0.028869;;;;;;;;0.0217;0.231;;;;;;;;;;;;;;;;;;;;;;;;;;;;;;;;;;;;;1128;211;138;PB206_U238 AGE;;;;;;
2016;[20008] GAO XIN-YU (2016);samp. JGT-1;;CENTRAL ASIAN FOLDBELT - MESOZOIC / CHINA - MESOZOIC / ANHUI PROVINCE;JINGANGTAI, NORTH HUAIYANG;31.75;115.75;31.75;115.75;;;OUTCROP;;;SUBAERIAL;VOLCANIC ROCK;TRACHYDACITE;;;;;CRETACEOUS;LOWER;;;;MINERAL / COMPONENT (INCL. GROUNDMASS);ZIRCON;JGT-1-9;;;PRIMARY;;;;;;;;;;;;;;;;;;;;;;;;;;;;;;;;;;;;;;;;;;;;;;;;;;;;;;;;;;;;;;;;;;;;;;;;;;;;;;;;;;;;;;;;;;;;;;;;;;;;;;;;;;;;;;;;;;;;;;;;;;;;;;;;;;;;;;;;;;;;;;;;;;;;;;;;;;;;;;;;;;;;;;;;;;;;;;;614;ICPMS_LA;;;329;;;;;;;;;;;;;;;;;0.0493;;;;0.282214;;;0.000461;0.013352;;;;;;;;0.0199;0.135;;;;;;;;;;;;;;;;;;;;;;;;;;;;;;;;;;;;;167;129;127;PB206_U238 AGE;;;;;;
2016;[20008] GAO XIN-YU (2016);samp. JGT-1;;CENTRAL ASIAN FOLDBELT - MESOZOIC / CHINA - MESOZOIC / ANHUI PROVINCE;JINGANGTAI, NORTH HUAIYANG;31.75;115.75;31.75;115.75;;;OUTCROP;;;SUBAERIAL;VOLCANIC ROCK;TRACHYDACITE;;;;;CRETACEOUS;LOWER;;;;MINERAL / COMPONENT (INCL. GROUNDMASS);ZIRCON;JGT-1-10;;;PRIMARY;;;;;;;;;;;;;;;;;;;;;;;;;;;;;;;;;;;;;;;;;;;;;;;;;;;;;;;;;;;;;;;;;;;;;;;;;;;;;;;;;;;;;;;;;;;;;;;;;;;;;;;;;;;;;;;;;;;;;;;;;;;;;;;;;;;;;;;;;;;;;;;;;;;;;;;;;;;;;;;;;;;;;;;;;;;;;;;182;ICPMS_LA;;;200;;;;;;;;;;;;;;;;;0.0476;;;;0.282207;;;0.001343;0.037419;;;;;;;;0.0201;0.132;;;;;;;;;;;;;;;;;;;;;;;;;;;;;;;;;;;;;80;126;128;PB206_U238 AGE;;;;;;
2016;[20008] GAO XIN-YU (2016);samp. JGT-1;;CENTRAL ASIAN FOLDBELT - MESOZOIC / CHINA - MESOZOIC / ANHUI PROVINCE;JINGANGTAI, NORTH HUAIYANG;31.75;115.75;31.75;115.75;;;OUTCROP;;;SUBAERIAL;VOLCANIC ROCK;TRACHYDACITE;;;;;CRETACEOUS;LOWER;;;;MINERAL / COMPONENT (INCL. GROUNDMASS);ZIRCON;JGT-1-11;;;PRIMARY;;;;;;;;;;;;;;;;;;;;;;;;;;;;;;;;;;;;;;;;;;;;;;;;;;;;;;;;;;;;;;;;;;;;;;;;;;;;;;;;;;;;;;;;;;;;;;;;;;;;;;;;;;;;;;;;;;;;;;;;;;;;;;;;;;;;;;;;;;;;;;;;;;;;;;;;;;;;;;;;;;;;;;;;;;;;;;;69;ICPMS_LA;;;155;;;;;;;;;;;;;;;;;0.0476;;;;0.282198;;;0.000454;0.012693;;;;;;;;0.0199;0.131;;;;;;;;;;;;;;;;;;;;;;;;;;;;;;;;;;;;;76;125;127;PB206_U238 AGE;;;;;;
2016;[20008] GAO XIN-YU (2016);samp. JGT-1;;CENTRAL ASIAN FOLDBELT - MESOZOIC / CHINA - MESOZOIC / ANHUI PROVINCE;JINGANGTAI, NORTH HUAIYANG;31.75;115.75;31.75;115.75;;;OUTCROP;;;SUBAERIAL;VOLCANIC ROCK;TRACHYDACITE;;;;;CRETACEOUS;LOWER;;;;MINERAL / COMPONENT (INCL. GROUNDMASS);ZIRCON;JGT-1-12;;;PRIMARY;;;;;;;;;;;;;;;;;;;;;;;;;;;;;;;;;;;;;;;;;;;;;;;;;;;;;;;;;;;;;;;;;;;;;;;;;;;;;;;;;;;;;;;;;;;;;;;;;;;;;;;;;;;;;;;;;;;;;;;;;;;;;;;;;;;;;;;;;;;;;;;;;;;;;;;;;;;;;;;;;;;;;;;;;;;;;;;202;ICPMS_LA;;;282;;;;;;;;;;;;;;;;;0.0485;;;;0.282157;;;0.000643;0.017746;;;;;;;;0.02;0.133;;;;;;;;;;;;;;;;;;;;;;;;;;;;;;;;;;;;;124;127;128;PB206_U238 AGE;;;;;;
2016;[20008] GAO XIN-YU (2016);samp. JGT-1;;CENTRAL ASIAN FOLDBELT - MESOZOIC / CHINA - MESOZOIC / ANHUI PROVINCE;JINGANGTAI, NORTH HUAIYANG;31.75;115.75;31.75;115.75;;;OUTCROP;;;SUBAERIAL;VOLCANIC ROCK;TRACHYDACITE;;;;;CRETACEOUS;LOWER;;;;MINERAL / COMPONENT (INCL. GROUNDMASS);ZIRCON;JGT-1-13;;;PRIMARY;;;;;;;;;;;;;;;;;;;;;;;;;;;;;;;;;;;;;;;;;;;;;;;;;;;;;;;;;;;;;;;;;;;;;;;;;;;;;;;;;;;;;;;;;;;;;;;;;;;;;;;;;;;;;;;;;;;;;;;;;;;;;;;;;;;;;;;;;;;;;;;;;;;;;;;;;;;;;;;;;;;;;;;;;;;;;;;238;ICPMS_LA;;;347;;;;;;;;;;;;;;;;;0.0505;;;;0.282151;;;0.000538;0.015128;;;;;;;;0.0182;0.126;;;;;;;;;;;;;;;;;;;;;;;;;;;;;;;;;;;;;217;121;116;PB206_U238 AGE;;;;;;
2016;[20008] GAO XIN-YU (2016);samp. JGT-1;;CENTRAL ASIAN FOLDBELT - MESOZOIC / CHINA - MESOZOIC / ANHUI PROVINCE;JINGANGTAI, NORTH HUAIYANG;31.75;115.75;31.75;115.75;;;OUTCROP;;;SUBAERIAL;VOLCANIC ROCK;TRACHYDACITE;;;;;CRETACEOUS;LOWER;;;;MINERAL / COMPONENT (INCL. GROUNDMASS);ZIRCON;JGT-1-14;;;PRIMARY;;;;;;;;;;;;;;;;;;;;;;;;;;;;;;;;;;;;;;;;;;;;;;;;;;;;;;;;;;;;;;;;;;;;;;;;;;;;;;;;;;;;;;;;;;;;;;;;;;;;;;;;;;;;;;;;;;;;;;;;;;;;;;;;;;;;;;;;;;;;;;;;;;;;;;;;;;;;;;;;;;;;;;;;;;;;;;;365;ICPMS_LA;;;195;;;;;;;;;;;;;;;;;0.1185;;;;0.282086;;;0.000446;0.013075;;;;;;;;0.0217;0.388;;;;;;;;;;;;;;;;;;;;;;;;;;;;;;;;;;;;;1933;333;139;PB206_U238 AGE;;;;;;
2016;[20008] GAO XIN-YU (2016);samp. JGT-1;;CENTRAL ASIAN FOLDBELT - MESOZOIC / CHINA - MESOZOIC / ANHUI PROVINCE;JINGANGTAI, NORTH HUAIYANG;31.75;115.75;31.75;115.75;;;OUTCROP;;;SUBAERIAL;VOLCANIC ROCK;TRACHYDACITE;;;;;CRETACEOUS;LOWER;;;;MINERAL / COMPONENT (INCL. GROUNDMASS);ZIRCON;JGT-1-15;;;PRIMARY;;;;;;;;;;;;;;;;;;;;;;;;;;;;;;;;;;;;;;;;;;;;;;;;;;;;;;;;;;;;;;;;;;;;;;;;;;;;;;;;;;;;;;;;;;;;;;;;;;;;;;;;;;;;;;;;;;;;;;;;;;;;;;;;;;;;;;;;;;;;;;;;;;;;;;;;;;;;;;;;;;;;;;;;;;;;;;;458;ICPMS_LA;;;245;;;;;;;;;;;;;;;;;0.0527;;;;0.28219;;;0.001367;0.037831;;;;;;;;0.0201;0.147;;;;;;;;;;;;;;;;;;;;;;;;;;;;;;;;;;;;;322;139;128;PB206_U238 AGE;;;;;;
2016;[20008] GAO XIN-YU (2016);samp. JGT-1;;CENTRAL ASIAN FOLDBELT - MESOZOIC / CHINA - MESOZOIC / ANHUI PROVINCE;JINGANGTAI, NORTH HUAIYANG;31.75;115.75;31.75;115.75;;;OUTCROP;;;SUBAERIAL;VOLCANIC ROCK;TRACHYDACITE;;;;;CRETACEOUS;LOWER;;;;MINERAL / COMPONENT (INCL. GROUNDMASS);ZIRCON;JGT-1-16;;;PRIMARY;;;;;;;;;;;;;;;;;;;;;;;;;;;;;;;;;;;;;;;;;;;;;;;;;;;;;;;;;;;;;;;;;;;;;;;;;;;;;;;;;;;;;;;;;;;;;;;;;;;;;;;;;;;;;;;;;;;;;;;;;;;;;;;;;;;;;;;;;;;;;;;;;;;;;;;;;;;;;;;;;;;;;;;;;;;;;;;60.9;ICPMS_LA;;;57.9;;;;;;;;;;;;;;;;;0.0476;;;;0.282194;;;0.000497;0.014426;;;;;;;;0.02;0.131;;;;;;;;;;;;;;;;;;;;;;;;;;;;;;;;;;;;;80;125;128;PB206_U238 AGE;;;;;;
2016;[20008] GAO XIN-YU (2016);samp. JGT-1;;CENTRAL ASIAN FOLDBELT - MESOZOIC / CHINA - MESOZOIC / ANHUI PROVINCE;JINGANGTAI, NORTH HUAIYANG;31.75;115.75;31.75;115.75;;;OUTCROP;;;SUBAERIAL;VOLCANIC ROCK;TRACHYDACITE;;;;;CRETACEOUS;LOWER;;;;MINERAL / COMPONENT (INCL. GROUNDMASS);ZIRCON;JGT-1-17;;;PRIMARY;;;;;;;;;;;;;;;;;;;;;;;;;;;;;;;;;;;;;;;;;;;;;;;;;;;;;;;;;;;;;;;;;;;;;;;;;;;;;;;;;;;;;;;;;;;;;;;;;;;;;;;;;;;;;;;;;;;;;;;;;;;;;;;;;;;;;;;;;;;;;;;;;;;;;;;;;;;;;;;;;;;;;;;;;;;;;;;352;ICPMS_LA;;;192;;;;;;;;;;;;;;;;;0.0487;;;;0.282268;;;0.001038;0.029634;;;;;;;;0.0198;0.133;;;;;;;;;;;;;;;;;;;;;;;;;;;;;;;;;;;;;132;127;126;PB206_U238 AGE;;;;;;
2016;[20008] GAO XIN-YU (2016);samp. JGT-1;;CENTRAL ASIAN FOLDBELT - MESOZOIC / CHINA - MESOZOIC / ANHUI PROVINCE;JINGANGTAI, NORTH HUAIYANG;31.75;115.75;31.75;115.75;;;OUTCROP;;;SUBAERIAL;VOLCANIC ROCK;TRACHYDACITE;;;;;CRETACEOUS;LOWER;;;;MINERAL / COMPONENT (INCL. GROUNDMASS);ZIRCON;JGT-1-18;;;PRIMARY;;;;;;;;;;;;;;;;;;;;;;;;;;;;;;;;;;;;;;;;;;;;;;;;;;;;;;;;;;;;;;;;;;;;;;;;;;;;;;;;;;;;;;;;;;;;;;;;;;;;;;;;;;;;;;;;;;;;;;;;;;;;;;;;;;;;;;;;;;;;;;;;;;;;;;;;;;;;;;;;;;;;;;;;;;;;;;;396;ICPMS_LA;;;214;;;;;;;;;;;;;;;;;0.0479;;;;0.282295;;;0.000464;0.013596;;;;;;;;0.0198;0.131;;;;;;;;;;;;;;;;;;;;;;;;;;;;;;;;;;;;;95;125;126;PB206_U238 AGE;;;;;;
2016;[20008] GAO XIN-YU (2016);samp. JGT-1;;CENTRAL ASIAN FOLDBELT - MESOZOIC / CHINA - MESOZOIC / ANHUI PROVINCE;JINGANGTAI, NORTH HUAIYANG;31.75;115.75;31.75;115.75;;;OUTCROP;;;SUBAERIAL;VOLCANIC ROCK;TRACHYDACITE;;;;;CRETACEOUS;LOWER;;;;MINERAL / COMPONENT (INCL. GROUNDMASS);ZIRCON;JGT-1-19;;;PRIMARY;;;;;;;;;;;;;;;;;;;;;;;;;;;;;;;;;;;;;;;;;;;;;;;;;;;;;;;;;;;;;;;;;;;;;;;;;;;;;;;;;;;;;;;;;;;;;;;;;;;;;;;;;;;;;;;;;;;;;;;;;;;;;;;;;;;;;;;;;;;;;;;;;;;;;;;;;;;;;;;;;;;;;;;;;;;;;;;613;ICPMS_LA;;;320;;;;;;;;;;;;;;;;;0.0508;;;;0.282112;;;0.000725;0.020357;;;;;;;;0.0201;0.14;;;;;;;;;;;;;;;;;;;;;;;;;;;;;;;;;;;;;232;133;128;PB206_U238 AGE;;;;;;
2016;[20008] GAO XIN-YU (2016);samp. JGT-1;;CENTRAL ASIAN FOLDBELT - MESOZOIC / CHINA - MESOZOIC / ANHUI PROVINCE;JINGANGTAI, NORTH HUAIYANG;31.75;115.75;31.75;115.75;;;OUTCROP;;;SUBAERIAL;VOLCANIC ROCK;TRACHYDACITE;;;;;CRETACEOUS;LOWER;;;;MINERAL / COMPONENT (INCL. GROUNDMASS);ZIRCON;JGT-1-20;;;PRIMARY;;;;;;;;;;;;;;;;;;;;;;;;;;;;;;;;;;;;;;;;;;;;;;;;;;;;;;;;;;;;;;;;;;;;;;;;;;;;;;;;;;;;;;;;;;;;;;;;;;;;;;;;;;;;;;;;;;;;;;;;;;;;;;;;;;;;;;;;;;;;;;;;;;;;;;;;;;;;;;;;;;;;;;;;;;;;;;;245;ICPMS_LA;;;161;;;;;;;;;;;;;;;;;0.0504;;;;;;;;;;;;;;;;0.0198;0.138;;;;;;;;;;;;;;;;;;;;;;;;;;;;;;;;;;;;;213;131;127;PB206_U238 AGE;;;;;;
2016;[20008] GAO XIN-YU (2016);samp. JGT-4;;CENTRAL ASIAN FOLDBELT - MESOZOIC / CHINA - MESOZOIC / ANHUI PROVINCE;JINGANGTAI, NORTH HUAIYANG;31.75;115.75;31.75;115.75;;;OUTCROP;;;SUBAERIAL;VOLCANIC ROCK;TRACHYDACITE;;;;;CRETACEOUS;LOWER;;;;MINERAL / COMPONENT (INCL. GROUNDMASS);ZIRCON;JGT-4-1;;;PRIMARY;;;;;;;;;;;;;;;;;;;;;;;;;;;;;;;;;;;;;;;;;;;;;;;;;;;;;;;;;;;;;;;;;;;;;;;;;;;;;;;;;;;;;;;;;;;;;;;;;;;;;;;;;;;;;;;;;;;;;;;;;;;;;;;;;;;;;;;;;;;;;;;;;;;;;;;;;;;;;;;;;;;;;;;;;;;;;;;145;ICPMS_LA;;;252;;;;;;;;;;;;;;;;;0.0502;;;;0.282294;;;0.001351;0.040082;;;;;;;;0.0198;0.138;;;;;;;;;;;;;;;;;;;;;;;;;;;;;;;;;;;;;217;131;126;PB206_U238 AGE;;;;;;