Year;CITATION;SAMPLE NAME;UNIQUE_ID;LOCATION;LOCATION COMMENT;LATITUDE (MIN.);LONGITUDE (MIN.);LATITUDE (MAX.);LONGITUDE (MAX.);ELEVATION (MIN.);ELEVATION (MAX.);SAMPLING TECHNIQUE;DRILLING DEPTH (MIN.);DRILLING DEPTH (MAX.);LAND/SEA (SAMPLING);ROCK TYPE;ROCK NAME;ROCK TEXTURE;SAMPLE COMMENT;AGE (MIN.);AGE (MAX.);GEOLOGICAL AGE;GEOLOGICAL AGE PREFIX;ERUPTION YEAR;ALTERATION;ALTERATION TYPE;TYPE OF MATERIAL;MINERAL / COMPONENT;SPOT (MINERAL);CRYSTAL;RIM / CORE (MINERAL GRAINS);PRIMARY/SECONDARY;INCLUSION TYPE;SPOT (INCLUSION);MINERAL (INCLUSION);RIM / CORE (INCLUSION);HOSTMINERAL (INCLUSION);HEATING;HEATING TEMPERATURE (?C);SIO2(WT%);TIO2(WT%);ZRO2(WT%);B2O3(WT%);AL2O3(WT%);CR2O3(WT%);LA2O3(WT%);CE2O3(WT%);Y2O3(WT%);V2O3(WT%);NB2O3(WT%);TA2O5(WT%);WO3(WT%);FE2O3T(WT%);FE2O3(WT%);FEOT(WT%);FEO(WT%);CAO(WT%);MGO(WT%);MNO(WT%);BAO(WT%);SRO(WT%);NIO(WT%);ZNO(WT%);CS2O(WT%);RB2O(WT%);K2O(WT%);;;;NA2O(WT%);P2O5(WT%);H2O(WT%);;;;H2OP(WT%);H2OM(WT%);CO2(WT%);C(WT%);F(WT%);CL(WT%);SO2(WT%);SO3(WT%);S(WT%);LOI(WT%);AL(WT%);TI(WT%);FE(WT%);MG(WT%);CA(WT%);K(WT%);NA(WT%);LI(PPM);BE(PPM);B(PPM);C(PPM);F(PPM);NA(PPM);MG(PPM);AL(PPM);P(PPM);S(PPM);CL(PPM);AR40(AT/G);AR40(CCMSTP/G);AR40(MOL/G);AR40(PPB);K(PPM);CA(PPM);SC(PPM);;;;TI(PPM);;;;V(PPM);CR(PPM);MN(PPM);FE(PPM);CO(PPM);NI(PPM);CU(PPM);ZN(PPM);GA(PPM);GE(PPM);AS(PPM);SE(PPM);BR(PPM);RB(PPM): altern. values or methods;;;;SR(PPM): altern. values or methods;;;;Y(PPM): altern. values or methods;;;;ZR(PPM): altern. values or methods;;;;NB(PPM): altern. values or methods;;;;MO(PPM): altern. values or methods;;;;AG(PPM);CD(PPM);IN(PPM);SN(PPM);SB(PPM);TE(PPM);CS(PPM);BA(PPM): altern. values or methods;;;;LA(PPM): altern. values or methods;;;;CE(PPM): altern. values or methods;;;;PR(PPM);ND(PPM): altern. values or methods;;;;SM(PPM): altern. values or methods;;;;EU(PPM);GD(PPM);TB(PPM);DY(PPM);HO(PPM);ER(PPM);TM(PPM);YB(PPM);LU(PPM);HF(PPM);TA(PPM);W(PPM);RE(PPM);AU(PPM);AU(PPB);HG(PPM);HG(PPB);TL(PPM);PB(PPM): altern. values or methods;;;;PB206(PPM);BI(PPM);TH(PPM): altern. values or methods;;;;U(PPM);ND143_ND144;ND143_ND144_INI;EPSILON_ND;EPSILON_ND_INI;SM147_ND144;SR87_SR86;SR87_SR86_INI;EPSILON_SR;EPSILON_SR_INI;RB87_SR86;PB206_PB204;PB206_PB204_INI;PB206_PB207;PB206_PB208;PB207_PB204;PB207_PB204_INI;PB207_PB206;PB208_PB204;PB208_PB204_INI;PB208_PB206;HF176_HF177;HF176_HF177_INI;EPSILON_HF_INI;LU176_HF177;YB176_HF177;AR36_AR39;AR36_AR40;AR37_AR39;AR38_AR39;AR39_AR40;AR40_AR36;AR40_AR39;PB206_U238;PB207_U235;PB208_TH232;TH232_PB204;TH232_U238;U235_PB204;U238_PB204;U238_PB206;D7LI(VS LSVEC);D18O(PER MIL);D18O(VS SMOW);D18O(VS VSMOW);D56FE(VS IRMM-014);D57FE(VS IRMM-014);DD(VS SMOW);ALBITE(MOL%);ANORTHITE(MOL%);CA OLIVINE(MOL%);ENSTATITE(MOL%);FAYALITE(MOL%);FORSTERITE(MOL%);FERROSILITE(MOL%);ORTHOCLASE(MOL%);TEPHROITE(MOL%);ULVOSPINEL(MOL%);WOLLASTONITE(MOL%);AGE(KA): altern. values or methods;;;;AGE(MA): altern. values or methods;;;;;;;;AGE_PB207_PB206(MA);AGE_PB207_U235(MA);AGE_PB206_U238(MA): altern. values or methods;;;;;;AGE_PB208_TH232(MA);
2016;[20008] GAO XIN-YU (2016);samp. JGT-4;;CENTRAL ASIAN FOLDBELT - MESOZOIC / CHINA - MESOZOIC / ANHUI PROVINCE;JINGANGTAI, NORTH HUAIYANG;31.75;115.75;31.75;115.75;;;OUTCROP;;;SUBAERIAL;VOLCANIC ROCK;TRACHYDACITE;;;;;CRETACEOUS;LOWER;;;;MINERAL / COMPONENT (INCL. GROUNDMASS);ZIRCON;JGT-4-2;;;PRIMARY;;;;;;;;;;;;;;;;;;;;;;;;;;;;;;;;;;;;;;;;;;;;;;;;;;;;;;;;;;;;;;;;;;;;;;;;;;;;;;;;;;;;;;;;;;;;;;;;;;;;;;;;;;;;;;;;;;;;;;;;;;;;;;;;;;;;;;;;;;;;;;;;;;;;;;;;;;;;;;;;;;;;;;;;;;;;;;;174;ICPMS_LA;;;384;;;;;;;;;;;;;;;;;0.0481;;;;0.282115;;;0.002199;0.060263;;;;;;;;0.0199;0.133;;;;;;;;;;;;;;;;;;;;;;;;;;;;;;;;;;;;;124;127;127;PB206_U238 AGE;;;;;;
2016;[20008] GAO XIN-YU (2016);samp. JGT-4;;CENTRAL ASIAN FOLDBELT - MESOZOIC / CHINA - MESOZOIC / ANHUI PROVINCE;JINGANGTAI, NORTH HUAIYANG;31.75;115.75;31.75;115.75;;;OUTCROP;;;SUBAERIAL;VOLCANIC ROCK;TRACHYDACITE;;;;;CRETACEOUS;LOWER;;;;MINERAL / COMPONENT (INCL. GROUNDMASS);ZIRCON;JGT-4-3;;;PRIMARY;;;;;;;;;;;;;;;;;;;;;;;;;;;;;;;;;;;;;;;;;;;;;;;;;;;;;;;;;;;;;;;;;;;;;;;;;;;;;;;;;;;;;;;;;;;;;;;;;;;;;;;;;;;;;;;;;;;;;;;;;;;;;;;;;;;;;;;;;;;;;;;;;;;;;;;;;;;;;;;;;;;;;;;;;;;;;;;260;ICPMS_LA;;;265;;;;;;;;;;;;;;;;;0.0477;;;;0.282177;;;0.0012;0.034689;;;;;;;;0.02;0.131;;;;;;;;;;;;;;;;;;;;;;;;;;;;;;;;;;;;;76;125;128;PB206_U238 AGE;;;;;;
2016;[20008] GAO XIN-YU (2016);samp. JGT-4;;CENTRAL ASIAN FOLDBELT - MESOZOIC / CHINA - MESOZOIC / ANHUI PROVINCE;JINGANGTAI, NORTH HUAIYANG;31.75;115.75;31.75;115.75;;;OUTCROP;;;SUBAERIAL;VOLCANIC ROCK;TRACHYDACITE;;;;;CRETACEOUS;LOWER;;;;MINERAL / COMPONENT (INCL. GROUNDMASS);ZIRCON;JGT-4-4;;;PRIMARY;;;;;;;;;;;;;;;;;;;;;;;;;;;;;;;;;;;;;;;;;;;;;;;;;;;;;;;;;;;;;;;;;;;;;;;;;;;;;;;;;;;;;;;;;;;;;;;;;;;;;;;;;;;;;;;;;;;;;;;;;;;;;;;;;;;;;;;;;;;;;;;;;;;;;;;;;;;;;;;;;;;;;;;;;;;;;;;167;ICPMS_LA;;;266;;;;;;;;;;;;;;;;;0.1203;;;;0.282139;;;0.002298;0.066039;;;;;;;;0.0216;0.385;;;;;;;;;;;;;;;;;;;;;;;;;;;;;;;;;;;;;2091;331;137;PB206_U238 AGE;;;;;;
2016;[20008] GAO XIN-YU (2016);samp. JGT-4;;CENTRAL ASIAN FOLDBELT - MESOZOIC / CHINA - MESOZOIC / ANHUI PROVINCE;JINGANGTAI, NORTH HUAIYANG;31.75;115.75;31.75;115.75;;;OUTCROP;;;SUBAERIAL;VOLCANIC ROCK;TRACHYDACITE;;;;;CRETACEOUS;LOWER;;;;MINERAL / COMPONENT (INCL. GROUNDMASS);ZIRCON;JGT-4-5;;;PRIMARY;;;;;;;;;;;;;;;;;;;;;;;;;;;;;;;;;;;;;;;;;;;;;;;;;;;;;;;;;;;;;;;;;;;;;;;;;;;;;;;;;;;;;;;;;;;;;;;;;;;;;;;;;;;;;;;;;;;;;;;;;;;;;;;;;;;;;;;;;;;;;;;;;;;;;;;;;;;;;;;;;;;;;;;;;;;;;;;86.3;ICPMS_LA;;;73.9;;;;;;;;;;;;;;;;;0.0484;;;;0.282262;;;0.001707;0.046674;;;;;;;;0.0204;0.139;;;;;;;;;;;;;;;;;;;;;;;;;;;;;;;;;;;;;172;132;130;PB206_U238 AGE;;;;;;
2016;[20008] GAO XIN-YU (2016);samp. JGT-4;;CENTRAL ASIAN FOLDBELT - MESOZOIC / CHINA - MESOZOIC / ANHUI PROVINCE;JINGANGTAI, NORTH HUAIYANG;31.75;115.75;31.75;115.75;;;OUTCROP;;;SUBAERIAL;VOLCANIC ROCK;TRACHYDACITE;;;;;CRETACEOUS;LOWER;;;;MINERAL / COMPONENT (INCL. GROUNDMASS);ZIRCON;JGT-4-6;;;PRIMARY;;;;;;;;;;;;;;;;;;;;;;;;;;;;;;;;;;;;;;;;;;;;;;;;;;;;;;;;;;;;;;;;;;;;;;;;;;;;;;;;;;;;;;;;;;;;;;;;;;;;;;;;;;;;;;;;;;;;;;;;;;;;;;;;;;;;;;;;;;;;;;;;;;;;;;;;;;;;;;;;;;;;;;;;;;;;;;;222;ICPMS_LA;;;369;;;;;;;;;;;;;;;;;0.0477;;;;0.282189;;;0.001141;0.035256;;;;;;;;0.0199;0.13;;;;;;;;;;;;;;;;;;;;;;;;;;;;;;;;;;;;;78;124;127;PB206_U238 AGE;;;;;;
2016;[20008] GAO XIN-YU (2016);samp. JGT-4;;CENTRAL ASIAN FOLDBELT - MESOZOIC / CHINA - MESOZOIC / ANHUI PROVINCE;JINGANGTAI, NORTH HUAIYANG;31.75;115.75;31.75;115.75;;;OUTCROP;;;SUBAERIAL;VOLCANIC ROCK;TRACHYDACITE;;;;;CRETACEOUS;LOWER;;;;MINERAL / COMPONENT (INCL. GROUNDMASS);ZIRCON;JGT-4-7;;;PRIMARY;;;;;;;;;;;;;;;;;;;;;;;;;;;;;;;;;;;;;;;;;;;;;;;;;;;;;;;;;;;;;;;;;;;;;;;;;;;;;;;;;;;;;;;;;;;;;;;;;;;;;;;;;;;;;;;;;;;;;;;;;;;;;;;;;;;;;;;;;;;;;;;;;;;;;;;;;;;;;;;;;;;;;;;;;;;;;;;237;ICPMS_LA;;;340;;;;;;;;;;;;;;;;;0.0912;;;;0.282144;;;0.000646;0.018232;;;;;;;;0.0211;0.258;;;;;;;;;;;;;;;;;;;;;;;;;;;;;;;;;;;;;1332;233;134;PB206_U238 AGE;;;;;;
2016;[20008] GAO XIN-YU (2016);samp. JGT-4;;CENTRAL ASIAN FOLDBELT - MESOZOIC / CHINA - MESOZOIC / ANHUI PROVINCE;JINGANGTAI, NORTH HUAIYANG;31.75;115.75;31.75;115.75;;;OUTCROP;;;SUBAERIAL;VOLCANIC ROCK;TRACHYDACITE;;;;;CRETACEOUS;LOWER;;;;MINERAL / COMPONENT (INCL. GROUNDMASS);ZIRCON;JGT-4-8;;;PRIMARY;;;;;;;;;;;;;;;;;;;;;;;;;;;;;;;;;;;;;;;;;;;;;;;;;;;;;;;;;;;;;;;;;;;;;;;;;;;;;;;;;;;;;;;;;;;;;;;;;;;;;;;;;;;;;;;;;;;;;;;;;;;;;;;;;;;;;;;;;;;;;;;;;;;;;;;;;;;;;;;;;;;;;;;;;;;;;;;186;ICPMS_LA;;;338;;;;;;;;;;;;;;;;;0.0936;;;;0.282172;;;0.001098;0.033191;;;;;;;;0.0215;0.302;;;;;;;;;;;;;;;;;;;;;;;;;;;;;;;;;;;;;1573;268;137;PB206_U238 AGE;;;;;;
2016;[20008] GAO XIN-YU (2016);samp. JGT-4;;CENTRAL ASIAN FOLDBELT - MESOZOIC / CHINA - MESOZOIC / ANHUI PROVINCE;JINGANGTAI, NORTH HUAIYANG;31.75;115.75;31.75;115.75;;;OUTCROP;;;SUBAERIAL;VOLCANIC ROCK;TRACHYDACITE;;;;;CRETACEOUS;LOWER;;;;MINERAL / COMPONENT (INCL. GROUNDMASS);ZIRCON;JGT-4-9;;;PRIMARY;;;;;;;;;;;;;;;;;;;;;;;;;;;;;;;;;;;;;;;;;;;;;;;;;;;;;;;;;;;;;;;;;;;;;;;;;;;;;;;;;;;;;;;;;;;;;;;;;;;;;;;;;;;;;;;;;;;;;;;;;;;;;;;;;;;;;;;;;;;;;;;;;;;;;;;;;;;;;;;;;;;;;;;;;;;;;;;202;ICPMS_LA;;;244;;;;;;;;;;;;;;;;;0.0608;;;;0.282142;;;0.001432;0.04006;;;;;;;;0.0206;0.171;;;;;;;;;;;;;;;;;;;;;;;;;;;;;;;;;;;;;611;161;132;PB206_U238 AGE;;;;;;
2016;[20008] GAO XIN-YU (2016);samp. JGT-4;;CENTRAL ASIAN FOLDBELT - MESOZOIC / CHINA - MESOZOIC / ANHUI PROVINCE;JINGANGTAI, NORTH HUAIYANG;31.75;115.75;31.75;115.75;;;OUTCROP;;;SUBAERIAL;VOLCANIC ROCK;TRACHYDACITE;;;;;CRETACEOUS;LOWER;;;;MINERAL / COMPONENT (INCL. GROUNDMASS);ZIRCON;JGT-4-10;;;PRIMARY;;;;;;;;;;;;;;;;;;;;;;;;;;;;;;;;;;;;;;;;;;;;;;;;;;;;;;;;;;;;;;;;;;;;;;;;;;;;;;;;;;;;;;;;;;;;;;;;;;;;;;;;;;;;;;;;;;;;;;;;;;;;;;;;;;;;;;;;;;;;;;;;;;;;;;;;;;;;;;;;;;;;;;;;;;;;;;;232;ICPMS_LA;;;132;;;;;;;;;;;;;;;;;0.0483;;;;0.282207;;;0.001592;0.045286;;;;;;;;0.0199;0.133;;;;;;;;;;;;;;;;;;;;;;;;;;;;;;;;;;;;;109;126;127;PB206_U238 AGE;;;;;;
2016;[20008] GAO XIN-YU (2016);samp. JGT-4;;CENTRAL ASIAN FOLDBELT - MESOZOIC / CHINA - MESOZOIC / ANHUI PROVINCE;JINGANGTAI, NORTH HUAIYANG;31.75;115.75;31.75;115.75;;;OUTCROP;;;SUBAERIAL;VOLCANIC ROCK;TRACHYDACITE;;;;;CRETACEOUS;LOWER;;;;MINERAL / COMPONENT (INCL. GROUNDMASS);ZIRCON;JGT-4-11;;;PRIMARY;;;;;;;;;;;;;;;;;;;;;;;;;;;;;;;;;;;;;;;;;;;;;;;;;;;;;;;;;;;;;;;;;;;;;;;;;;;;;;;;;;;;;;;;;;;;;;;;;;;;;;;;;;;;;;;;;;;;;;;;;;;;;;;;;;;;;;;;;;;;;;;;;;;;;;;;;;;;;;;;;;;;;;;;;;;;;;;144;ICPMS_LA;;;214;;;;;;;;;;;;;;;;;0.0516;;;;0.282271;;;0.001533;0.041984;;;;;;;;0.0196;0.142;;;;;;;;;;;;;;;;;;;;;;;;;;;;;;;;;;;;;309;135;125;PB206_U238 AGE;;;;;;
2016;[20008] GAO XIN-YU (2016);samp. JGT-4;;CENTRAL ASIAN FOLDBELT - MESOZOIC / CHINA - MESOZOIC / ANHUI PROVINCE;JINGANGTAI, NORTH HUAIYANG;31.75;115.75;31.75;115.75;;;OUTCROP;;;SUBAERIAL;VOLCANIC ROCK;TRACHYDACITE;;;;;CRETACEOUS;LOWER;;;;MINERAL / COMPONENT (INCL. GROUNDMASS);ZIRCON;JGT-4-12;;;PRIMARY;;;;;;;;;;;;;;;;;;;;;;;;;;;;;;;;;;;;;;;;;;;;;;;;;;;;;;;;;;;;;;;;;;;;;;;;;;;;;;;;;;;;;;;;;;;;;;;;;;;;;;;;;;;;;;;;;;;;;;;;;;;;;;;;;;;;;;;;;;;;;;;;;;;;;;;;;;;;;;;;;;;;;;;;;;;;;;;262;ICPMS_LA;;;320;;;;;;;;;;;;;;;;;0.0486;;;;0.282236;;;0.001592;0.048084;;;;;;;;0.0201;0.134;;;;;;;;;;;;;;;;;;;;;;;;;;;;;;;;;;;;;117;127;128;PB206_U238 AGE;;;;;;
2016;[20008] GAO XIN-YU (2016);samp. JGT-4;;CENTRAL ASIAN FOLDBELT - MESOZOIC / CHINA - MESOZOIC / ANHUI PROVINCE;JINGANGTAI, NORTH HUAIYANG;31.75;115.75;31.75;115.75;;;OUTCROP;;;SUBAERIAL;VOLCANIC ROCK;TRACHYDACITE;;;;;CRETACEOUS;LOWER;;;;MINERAL / COMPONENT (INCL. GROUNDMASS);ZIRCON;JGT-4-13;;;PRIMARY;;;;;;;;;;;;;;;;;;;;;;;;;;;;;;;;;;;;;;;;;;;;;;;;;;;;;;;;;;;;;;;;;;;;;;;;;;;;;;;;;;;;;;;;;;;;;;;;;;;;;;;;;;;;;;;;;;;;;;;;;;;;;;;;;;;;;;;;;;;;;;;;;;;;;;;;;;;;;;;;;;;;;;;;;;;;;;;298;ICPMS_LA;;;166;;;;;;;;;;;;;;;;;0.0479;;;;0.28219;;;0.001947;0.059635;;;;;;;;0.02;0.135;;;;;;;;;;;;;;;;;;;;;;;;;;;;;;;;;;;;;143;129;128;PB206_U238 AGE;;;;;;
2016;[20008] GAO XIN-YU (2016);samp. JGT-4;;CENTRAL ASIAN FOLDBELT - MESOZOIC / CHINA - MESOZOIC / ANHUI PROVINCE;JINGANGTAI, NORTH HUAIYANG;31.75;115.75;31.75;115.75;;;OUTCROP;;;SUBAERIAL;VOLCANIC ROCK;TRACHYDACITE;;;;;CRETACEOUS;LOWER;;;;MINERAL / COMPONENT (INCL. GROUNDMASS);ZIRCON;JGT-4-14;;;PRIMARY;;;;;;;;;;;;;;;;;;;;;;;;;;;;;;;;;;;;;;;;;;;;;;;;;;;;;;;;;;;;;;;;;;;;;;;;;;;;;;;;;;;;;;;;;;;;;;;;;;;;;;;;;;;;;;;;;;;;;;;;;;;;;;;;;;;;;;;;;;;;;;;;;;;;;;;;;;;;;;;;;;;;;;;;;;;;;;;190;ICPMS_LA;;;152;;;;;;;;;;;;;;;;;0.056;;;;0.282098;;;0.00074;0.020111;;;;;;;;0.0211;0.163;;;;;;;;;;;;;;;;;;;;;;;;;;;;;;;;;;;;;452;153;134;PB206_U238 AGE;;;;;;
2016;[20008] GAO XIN-YU (2016);samp. JGT-4;;CENTRAL ASIAN FOLDBELT - MESOZOIC / CHINA - MESOZOIC / ANHUI PROVINCE;JINGANGTAI, NORTH HUAIYANG;31.75;115.75;31.75;115.75;;;OUTCROP;;;SUBAERIAL;VOLCANIC ROCK;TRACHYDACITE;;;;;CRETACEOUS;LOWER;;;;MINERAL / COMPONENT (INCL. GROUNDMASS);ZIRCON;JGT-4-15;;;PRIMARY;;;;;;;;;;;;;;;;;;;;;;;;;;;;;;;;;;;;;;;;;;;;;;;;;;;;;;;;;;;;;;;;;;;;;;;;;;;;;;;;;;;;;;;;;;;;;;;;;;;;;;;;;;;;;;;;;;;;;;;;;;;;;;;;;;;;;;;;;;;;;;;;;;;;;;;;;;;;;;;;;;;;;;;;;;;;;;;360;ICPMS_LA;;;310;;;;;;;;;;;;;;;;;0.0526;;;;0.282246;;;0.002161;0.061511;;;;;;;;0.02;0.145;;;;;;;;;;;;;;;;;;;;;;;;;;;;;;;;;;;;;313;138;128;PB206_U238 AGE;;;;;;
2016;[20008] GAO XIN-YU (2016);samp. JGT-4;;CENTRAL ASIAN FOLDBELT - MESOZOIC / CHINA - MESOZOIC / ANHUI PROVINCE;JINGANGTAI, NORTH HUAIYANG;31.75;115.75;31.75;115.75;;;OUTCROP;;;SUBAERIAL;VOLCANIC ROCK;TRACHYDACITE;;;;;CRETACEOUS;LOWER;;;;MINERAL / COMPONENT (INCL. GROUNDMASS);ZIRCON;JGT-4-16;;;PRIMARY;;;;;;;;;;;;;;;;;;;;;;;;;;;;;;;;;;;;;;;;;;;;;;;;;;;;;;;;;;;;;;;;;;;;;;;;;;;;;;;;;;;;;;;;;;;;;;;;;;;;;;;;;;;;;;;;;;;;;;;;;;;;;;;;;;;;;;;;;;;;;;;;;;;;;;;;;;;;;;;;;;;;;;;;;;;;;;;765;ICPMS_LA;;;431;;;;;;;;;;;;;;;;;0.0506;;;;0.282158;;;0.002457;0.074256;;;;;;;;0.0201;0.14;;;;;;;;;;;;;;;;;;;;;;;;;;;;;;;;;;;;;222;133;128;PB206_U238 AGE;;;;;;
2016;[20008] GAO XIN-YU (2016);samp. JGT-4;;CENTRAL ASIAN FOLDBELT - MESOZOIC / CHINA - MESOZOIC / ANHUI PROVINCE;JINGANGTAI, NORTH HUAIYANG;31.75;115.75;31.75;115.75;;;OUTCROP;;;SUBAERIAL;VOLCANIC ROCK;TRACHYDACITE;;;;;CRETACEOUS;LOWER;;;;MINERAL / COMPONENT (INCL. GROUNDMASS);ZIRCON;JGT-4-17;;;PRIMARY;;;;;;;;;;;;;;;;;;;;;;;;;;;;;;;;;;;;;;;;;;;;;;;;;;;;;;;;;;;;;;;;;;;;;;;;;;;;;;;;;;;;;;;;;;;;;;;;;;;;;;;;;;;;;;;;;;;;;;;;;;;;;;;;;;;;;;;;;;;;;;;;;;;;;;;;;;;;;;;;;;;;;;;;;;;;;;;612;ICPMS_LA;;;422;;;;;;;;;;;;;;;;;0.0597;;;;0.282166;;;0.00208;0.064642;;;;;;;;0.02;0.164;;;;;;;;;;;;;;;;;;;;;;;;;;;;;;;;;;;;;592;154;127;PB206_U238 AGE;;;;;;
2016;[20008] GAO XIN-YU (2016);samp. JGT-4;;CENTRAL ASIAN FOLDBELT - MESOZOIC / CHINA - MESOZOIC / ANHUI PROVINCE;JINGANGTAI, NORTH HUAIYANG;31.75;115.75;31.75;115.75;;;OUTCROP;;;SUBAERIAL;VOLCANIC ROCK;TRACHYDACITE;;;;;CRETACEOUS;LOWER;;;;MINERAL / COMPONENT (INCL. GROUNDMASS);ZIRCON;JGT-4-18;;;PRIMARY;;;;;;;;;;;;;;;;;;;;;;;;;;;;;;;;;;;;;;;;;;;;;;;;;;;;;;;;;;;;;;;;;;;;;;;;;;;;;;;;;;;;;;;;;;;;;;;;;;;;;;;;;;;;;;;;;;;;;;;;;;;;;;;;;;;;;;;;;;;;;;;;;;;;;;;;;;;;;;;;;;;;;;;;;;;;;;;304;ICPMS_LA;;;240;;;;;;;;;;;;;;;;;0.0487;;;;0.282211;;;0.000881;0.025833;;;;;;;;0.0201;0.135;;;;;;;;;;;;;;;;;;;;;;;;;;;;;;;;;;;;;131;128;128;PB206_U238 AGE;;;;;;
2016;[20008] GAO XIN-YU (2016);samp. JGT-4;;CENTRAL ASIAN FOLDBELT - MESOZOIC / CHINA - MESOZOIC / ANHUI PROVINCE;JINGANGTAI, NORTH HUAIYANG;31.75;115.75;31.75;115.75;;;OUTCROP;;;SUBAERIAL;VOLCANIC ROCK;TRACHYDACITE;;;;;CRETACEOUS;LOWER;;;;MINERAL / COMPONENT (INCL. GROUNDMASS);ZIRCON;JGT-4-19;;;PRIMARY;;;;;;;;;;;;;;;;;;;;;;;;;;;;;;;;;;;;;;;;;;;;;;;;;;;;;;;;;;;;;;;;;;;;;;;;;;;;;;;;;;;;;;;;;;;;;;;;;;;;;;;;;;;;;;;;;;;;;;;;;;;;;;;;;;;;;;;;;;;;;;;;;;;;;;;;;;;;;;;;;;;;;;;;;;;;;;;322;ICPMS_LA;;;245;;;;;;;;;;;;;;;;;0.0546;;;;0.282168;;;0.000998;0.029118;;;;;;;;0.0209;0.188;;;;;;;;;;;;;;;;;;;;;;;;;;;;;;;;;;;;;798;149;133;PB206_U238 AGE;;;;;;
2016;[20008] GAO XIN-YU (2016);samp. JGT-4;;CENTRAL ASIAN FOLDBELT - MESOZOIC / CHINA - MESOZOIC / ANHUI PROVINCE;JINGANGTAI, NORTH HUAIYANG;31.75;115.75;31.75;115.75;;;OUTCROP;;;SUBAERIAL;VOLCANIC ROCK;TRACHYDACITE;;;;;CRETACEOUS;LOWER;;;;MINERAL / COMPONENT (INCL. GROUNDMASS);ZIRCON;JGT-4-20;;;PRIMARY;;;;;;;;;;;;;;;;;;;;;;;;;;;;;;;;;;;;;;;;;;;;;;;;;;;;;;;;;;;;;;;;;;;;;;;;;;;;;;;;;;;;;;;;;;;;;;;;;;;;;;;;;;;;;;;;;;;;;;;;;;;;;;;;;;;;;;;;;;;;;;;;;;;;;;;;;;;;;;;;;;;;;;;;;;;;;;;382;ICPMS_LA;;;282;;;;;;;;;;;;;;;;;0.0511;;;;0.282263;;;0.000938;0.02825;;;;;;;;0.0208;0.197;;;;;;;;;;;;;;;;;;;;;;;;;;;;;;;;;;;;;846;139;133;PB206_U238 AGE;;;;;;
2016;[20008] GAO XIN-YU (2016);samp. JGT-96;;CENTRAL ASIAN FOLDBELT - MESOZOIC / CHINA - MESOZOIC / ANHUI PROVINCE;JINGANGTAI, NORTH HUAIYANG;31.75;115.75;31.75;115.75;;;OUTCROP;;;SUBAERIAL;VOLCANIC ROCK;TRACHYDACITE;;;;;CRETACEOUS;LOWER;;;;MINERAL / COMPONENT (INCL. GROUNDMASS);ZIRCON;JGT-96-1;;;PRIMARY;;;;;;;;;;;;;;;;;;;;;;;;;;;;;;;;;;;;;;;;;;;;;;;;;;;;;;;;;;;;;;;;;;;;;;;;;;;;;;;;;;;;;;;;;;;;;;;;;;;;;;;;;;;;;;;;;;;;;;;;;;;;;;;;;;;;;;;;;;;;;;;;;;;;;;;;;;;;;;;;;;;;;;;;;;;;;;;442;ICPMS_LA;;;241;;;;;;;;;;;;;;;;;0.0524;;;;;;;;;;;;;;;;0.02;0.148;;;;;;;;;;;;;;;;;;;;;;;;;;;;;;;;;;;;;361;140;128;PB206_U238 AGE;;;;;;
2016;[20008] GAO XIN-YU (2016);samp. JGT-96;;CENTRAL ASIAN FOLDBELT - MESOZOIC / CHINA - MESOZOIC / ANHUI PROVINCE;JINGANGTAI, NORTH HUAIYANG;31.75;115.75;31.75;115.75;;;OUTCROP;;;SUBAERIAL;VOLCANIC ROCK;TRACHYDACITE;;;;;CRETACEOUS;LOWER;;;;MINERAL / COMPONENT (INCL. GROUNDMASS);ZIRCON;JGT-96-2;;;PRIMARY;;;;;;;;;;;;;;;;;;;;;;;;;;;;;;;;;;;;;;;;;;;;;;;;;;;;;;;;;;;;;;;;;;;;;;;;;;;;;;;;;;;;;;;;;;;;;;;;;;;;;;;;;;;;;;;;;;;;;;;;;;;;;;;;;;;;;;;;;;;;;;;;;;;;;;;;;;;;;;;;;;;;;;;;;;;;;;;403;ICPMS_LA;;;419;;;;;;;;;;;;;;;;;0.0772;;;;;;;;;;;;;;;;0.0202;0.245;;;;;;;;;;;;;;;;;;;;;;;;;;;;;;;;;;;;;1369;223;129;PB206_U238 AGE;;;;;;
2016;[20008] GAO XIN-YU (2016);samp. JGT-96;;CENTRAL ASIAN FOLDBELT - MESOZOIC / CHINA - MESOZOIC / ANHUI PROVINCE;JINGANGTAI, NORTH HUAIYANG;31.75;115.75;31.75;115.75;;;OUTCROP;;;SUBAERIAL;VOLCANIC ROCK;TRACHYDACITE;;;;;CRETACEOUS;LOWER;;;;MINERAL / COMPONENT (INCL. GROUNDMASS);ZIRCON;JGT-96-3;;;PRIMARY;;;;;;;;;;;;;;;;;;;;;;;;;;;;;;;;;;;;;;;;;;;;;;;;;;;;;;;;;;;;;;;;;;;;;;;;;;;;;;;;;;;;;;;;;;;;;;;;;;;;;;;;;;;;;;;;;;;;;;;;;;;;;;;;;;;;;;;;;;;;;;;;;;;;;;;;;;;;;;;;;;;;;;;;;;;;;;;221;ICPMS_LA;;;251;;;;;;;;;;;;;;;;;0.0537;;;;;;;;;;;;;;;;0.0196;0.146;;;;;;;;;;;;;;;;;;;;;;;;;;;;;;;;;;;;;361;138;125;PB206_U238 AGE;;;;;;
2016;[20008] GAO XIN-YU (2016);samp. JGT-96;;CENTRAL ASIAN FOLDBELT - MESOZOIC / CHINA - MESOZOIC / ANHUI PROVINCE;JINGANGTAI, NORTH HUAIYANG;31.75;115.75;31.75;115.75;;;OUTCROP;;;SUBAERIAL;VOLCANIC ROCK;TRACHYDACITE;;;;;CRETACEOUS;LOWER;;;;MINERAL / COMPONENT (INCL. GROUNDMASS);ZIRCON;JGT-96-4;;;PRIMARY;;;;;;;;;;;;;;;;;;;;;;;;;;;;;;;;;;;;;;;;;;;;;;;;;;;;;;;;;;;;;;;;;;;;;;;;;;;;;;;;;;;;;;;;;;;;;;;;;;;;;;;;;;;;;;;;;;;;;;;;;;;;;;;;;;;;;;;;;;;;;;;;;;;;;;;;;;;;;;;;;;;;;;;;;;;;;;;514;ICPMS_LA;;;265;;;;;;;;;;;;;;;;;0.0489;;;;;;;;;;;;;;;;0.0193;0.131;;;;;;;;;;;;;;;;;;;;;;;;;;;;;;;;;;;;;167;125;123;PB206_U238 AGE;;;;;;
2016;[20008] GAO XIN-YU (2016);samp. JGT-96;;CENTRAL ASIAN FOLDBELT - MESOZOIC / CHINA - MESOZOIC / ANHUI PROVINCE;JINGANGTAI, NORTH HUAIYANG;31.75;115.75;31.75;115.75;;;OUTCROP;;;SUBAERIAL;VOLCANIC ROCK;TRACHYDACITE;;;;;CRETACEOUS;LOWER;;;;MINERAL / COMPONENT (INCL. GROUNDMASS);ZIRCON;JGT-96-5;;;PRIMARY;;;;;;;;;;;;;;;;;;;;;;;;;;;;;;;;;;;;;;;;;;;;;;;;;;;;;;;;;;;;;;;;;;;;;;;;;;;;;;;;;;;;;;;;;;;;;;;;;;;;;;;;;;;;;;;;;;;;;;;;;;;;;;;;;;;;;;;;;;;;;;;;;;;;;;;;;;;;;;;;;;;;;;;;;;;;;;;637;ICPMS_LA;;;324;;;;;;;;;;;;;;;;;0.0508;;;;;;;;;;;;;;;;0.0193;0.13;;;;;;;;;;;;;;;;;;;;;;;;;;;;;;;;;;;;;143;124;123;PB206_U238 AGE;;;;;;
2016;[20008] GAO XIN-YU (2016);samp. JGT-96;;CENTRAL ASIAN FOLDBELT - MESOZOIC / CHINA - MESOZOIC / ANHUI PROVINCE;JINGANGTAI, NORTH HUAIYANG;31.75;115.75;31.75;115.75;;;OUTCROP;;;SUBAERIAL;VOLCANIC ROCK;TRACHYDACITE;;;;;CRETACEOUS;LOWER;;;;MINERAL / COMPONENT (INCL. GROUNDMASS);ZIRCON;JGT-96-6;;;PRIMARY;;;;;;;;;;;;;;;;;;;;;;;;;;;;;;;;;;;;;;;;;;;;;;;;;;;;;;;;;;;;;;;;;;;;;;;;;;;;;;;;;;;;;;;;;;;;;;;;;;;;;;;;;;;;;;;;;;;;;;;;;;;;;;;;;;;;;;;;;;;;;;;;;;;;;;;;;;;;;;;;;;;;;;;;;;;;;;;504;ICPMS_LA;;;261;;;;;;;;;;;;;;;;;0.051;;;;;;;;;;;;;;;;0.0187;0.134;;;;;;;;;;;;;;;;;;;;;;;;;;;;;;;;;;;;;283;127;119;PB206_U238 AGE;;;;;;
2016;[20008] GAO XIN-YU (2016);samp. JGT-96;;CENTRAL ASIAN FOLDBELT - MESOZOIC / CHINA - MESOZOIC / ANHUI PROVINCE;JINGANGTAI, NORTH HUAIYANG;31.75;115.75;31.75;115.75;;;OUTCROP;;;SUBAERIAL;VOLCANIC ROCK;TRACHYDACITE;;;;;CRETACEOUS;LOWER;;;;MINERAL / COMPONENT (INCL. GROUNDMASS);ZIRCON;JGT-96-7;;;PRIMARY;;;;;;;;;;;;;;;;;;;;;;;;;;;;;;;;;;;;;;;;;;;;;;;;;;;;;;;;;;;;;;;;;;;;;;;;;;;;;;;;;;;;;;;;;;;;;;;;;;;;;;;;;;;;;;;;;;;;;;;;;;;;;;;;;;;;;;;;;;;;;;;;;;;;;;;;;;;;;;;;;;;;;;;;;;;;;;;320;ICPMS_LA;;;143;;;;;;;;;;;;;;;;;0.0475;;;;;;;;;;;;;;;;0.0197;0.133;;;;;;;;;;;;;;;;;;;;;;;;;;;;;;;;;;;;;150;127;126;PB206_U238 AGE;;;;;;