Year;CITATION;SAMPLE NAME;UNIQUE_ID;LOCATION;LOCATION COMMENT;LATITUDE (MIN.);LONGITUDE (MIN.);LATITUDE (MAX.);LONGITUDE (MAX.);ELEVATION (MIN.);ELEVATION (MAX.);SAMPLING TECHNIQUE;DRILLING DEPTH (MIN.);DRILLING DEPTH (MAX.);LAND/SEA (SAMPLING);ROCK TYPE;ROCK NAME;ROCK TEXTURE;SAMPLE COMMENT;AGE (MIN.);AGE (MAX.);GEOLOGICAL AGE;GEOLOGICAL AGE PREFIX;ERUPTION YEAR;ALTERATION;ALTERATION TYPE;TYPE OF MATERIAL;MINERAL / COMPONENT;SPOT (MINERAL);CRYSTAL;RIM / CORE (MINERAL GRAINS);PRIMARY/SECONDARY;INCLUSION TYPE;SPOT (INCLUSION);MINERAL (INCLUSION);RIM / CORE (INCLUSION);HOSTMINERAL (INCLUSION);HEATING;HEATING TEMPERATURE (?C);SIO2(WT%);TIO2(WT%);ZRO2(WT%);B2O3(WT%);AL2O3(WT%);CR2O3(WT%);LA2O3(WT%);CE2O3(WT%);Y2O3(WT%);V2O3(WT%);NB2O3(WT%);TA2O5(WT%);WO3(WT%);FE2O3T(WT%);FE2O3(WT%);FEOT(WT%);FEO(WT%);CAO(WT%);MGO(WT%);MNO(WT%);BAO(WT%);SRO(WT%);NIO(WT%);ZNO(WT%);CS2O(WT%);RB2O(WT%);K2O(WT%);;;;NA2O(WT%);P2O5(WT%);H2O(WT%);;;;H2OP(WT%);H2OM(WT%);CO2(WT%);C(WT%);F(WT%);CL(WT%);SO2(WT%);SO3(WT%);S(WT%);LOI(WT%);AL(WT%);TI(WT%);FE(WT%);MG(WT%);CA(WT%);K(WT%);NA(WT%);LI(PPM);BE(PPM);B(PPM);C(PPM);F(PPM);NA(PPM);MG(PPM);AL(PPM);P(PPM);S(PPM);CL(PPM);AR40(AT/G);AR40(CCMSTP/G);AR40(MOL/G);AR40(PPB);K(PPM);CA(PPM);SC(PPM);;;;TI(PPM);;;;V(PPM);CR(PPM);MN(PPM);FE(PPM);CO(PPM);NI(PPM);CU(PPM);ZN(PPM);GA(PPM);GE(PPM);AS(PPM);SE(PPM);BR(PPM);RB(PPM): altern. values or methods;;;;SR(PPM): altern. values or methods;;;;Y(PPM): altern. values or methods;;;;ZR(PPM): altern. values or methods;;;;NB(PPM): altern. values or methods;;;;MO(PPM): altern. values or methods;;;;AG(PPM);CD(PPM);IN(PPM);SN(PPM);SB(PPM);TE(PPM);CS(PPM);BA(PPM): altern. values or methods;;;;LA(PPM): altern. values or methods;;;;CE(PPM): altern. values or methods;;;;PR(PPM);ND(PPM): altern. values or methods;;;;SM(PPM): altern. values or methods;;;;EU(PPM);GD(PPM);TB(PPM);DY(PPM);HO(PPM);ER(PPM);TM(PPM);YB(PPM);LU(PPM);HF(PPM);TA(PPM);W(PPM);RE(PPM);AU(PPM);AU(PPB);HG(PPM);HG(PPB);TL(PPM);PB(PPM): altern. values or methods;;;;PB206(PPM);BI(PPM);TH(PPM): altern. values or methods;;;;U(PPM);ND143_ND144;ND143_ND144_INI;EPSILON_ND;EPSILON_ND_INI;SM147_ND144;SR87_SR86;SR87_SR86_INI;EPSILON_SR;EPSILON_SR_INI;RB87_SR86;PB206_PB204;PB206_PB204_INI;PB206_PB207;PB206_PB208;PB207_PB204;PB207_PB204_INI;PB207_PB206;PB208_PB204;PB208_PB204_INI;PB208_PB206;HF176_HF177;HF176_HF177_INI;EPSILON_HF_INI;LU176_HF177;YB176_HF177;AR36_AR39;AR36_AR40;AR37_AR39;AR38_AR39;AR39_AR40;AR40_AR36;AR40_AR39;PB206_U238;PB207_U235;PB208_TH232;TH232_PB204;TH232_U238;U235_PB204;U238_PB204;U238_PB206;D7LI(VS LSVEC);D18O(PER MIL);D18O(VS SMOW);D18O(VS VSMOW);D56FE(VS IRMM-014);D57FE(VS IRMM-014);DD(VS SMOW);ALBITE(MOL%);ANORTHITE(MOL%);CA OLIVINE(MOL%);ENSTATITE(MOL%);FAYALITE(MOL%);FORSTERITE(MOL%);FERROSILITE(MOL%);ORTHOCLASE(MOL%);TEPHROITE(MOL%);ULVOSPINEL(MOL%);WOLLASTONITE(MOL%);AGE(KA): altern. values or methods;;;;AGE(MA): altern. values or methods;;;;;;;;AGE_PB207_PB206(MA);AGE_PB207_U235(MA);AGE_PB206_U238(MA): altern. values or methods;;;;;;AGE_PB208_TH232(MA);
2014;[18180] LIU LEI (2014);samp. HS01;;CENTRAL ASIAN FOLDBELT - MESOZOIC / CHINA - MESOZOIC / ZHEJIANG PROVINCE / HENGSHAN FORMATION;;29.4012;119.8638;29.4012;119.8638;;;OUTCROP;;;SUBAERIAL;VOLCANIC ROCK;TRACHYDACITE;;;;;;;;;;MINERAL / COMPONENT (INCL. GROUNDMASS);ZIRCON;HS01-16;;;PRIMARY;;;;;;;;;;;;;;;;;;;;;;;;;;;;;;;;;;;;;;;;;;;;;;;;;;;;;;;;;;;;;;;;;;;;;;;;;;;;;;;;;;;;;;;;;;;;;;;;;;;;;;;;;;;;;;;;;;;;;;;;;;;;;;;;;;;;;;;;;;;;;;;;;;;;;;;;;;;;;;;;;;;;;;;;;;;;;;;253;Q_ICPMS_LA;;;198;;;;;;;;;;;;;;;;;0.04841;;;;0.282746;;;0.001432;0.048001;;;;;;;;0.01837;0.12258;0.00309;;;;;;;;;;;;;;;;;;;;;;;;;;;;;;;;;;;;119;117;117;PB206_U238 AGE;;;;;62;
2014;[18180] LIU LEI (2014);samp. HS01;;CENTRAL ASIAN FOLDBELT - MESOZOIC / CHINA - MESOZOIC / ZHEJIANG PROVINCE / HENGSHAN FORMATION;;29.4012;119.8638;29.4012;119.8638;;;OUTCROP;;;SUBAERIAL;VOLCANIC ROCK;TRACHYDACITE;;;;;;;;;;MINERAL / COMPONENT (INCL. GROUNDMASS);ZIRCON;HS01-17;;;PRIMARY;;;;;;;;;;;;;;;;;;;;;;;;;;;;;;;;;;;;;;;;;;;;;;;;;;;;;;;;;;;;;;;;;;;;;;;;;;;;;;;;;;;;;;;;;;;;;;;;;;;;;;;;;;;;;;;;;;;;;;;;;;;;;;;;;;;;;;;;;;;;;;;;;;;;;;;;;;;;;;;;;;;;;;;;;;;;;;;175;Q_ICPMS_LA;;;171;;;;;;;;;;;;;;;;;0.04848;;;;0.282739;;;0.003298;0.095043;;;;;;;;0.02148;0.14355;0.00347;;;;;;;;;;;;;;;;;;;;;;;;;;;;;;;;;;;;123;136;137;PB206_U238 AGE;;;;;70;
2014;[18180] LIU LEI (2014);samp. HS01;;CENTRAL ASIAN FOLDBELT - MESOZOIC / CHINA - MESOZOIC / ZHEJIANG PROVINCE / HENGSHAN FORMATION;;29.4012;119.8638;29.4012;119.8638;;;OUTCROP;;;SUBAERIAL;VOLCANIC ROCK;TRACHYDACITE;;;;;;;;;;MINERAL / COMPONENT (INCL. GROUNDMASS);ZIRCON;HS01-18;;;PRIMARY;;;;;;;;;;;;;;;;;;;;;;;;;;;;;;;;;;;;;;;;;;;;;;;;;;;;;;;;;;;;;;;;;;;;;;;;;;;;;;;;;;;;;;;;;;;;;;;;;;;;;;;;;;;;;;;;;;;;;;;;;;;;;;;;;;;;;;;;;;;;;;;;;;;;;;;;;;;;;;;;;;;;;;;;;;;;;;;213;Q_ICPMS_LA;;;165;;;;;;;;;;;;;;;;;0.04855;;;;0.282446;;;0.001712;0.052966;;;;;;;;0.01855;0.12419;0.00427;;;;;;;;;;;;;;;;;;;;;;;;;;;;;;;;;;;;126;119;118;PB206_U238 AGE;;;;;86;
2014;[18180] LIU LEI (2014);samp. HS01;;CENTRAL ASIAN FOLDBELT - MESOZOIC / CHINA - MESOZOIC / ZHEJIANG PROVINCE / HENGSHAN FORMATION;;29.4012;119.8638;29.4012;119.8638;;;OUTCROP;;;SUBAERIAL;VOLCANIC ROCK;TRACHYDACITE;;;;;;;;;;MINERAL / COMPONENT (INCL. GROUNDMASS);ZIRCON;HS01-19;;;PRIMARY;;;;;;;;;;;;;;;;;;;;;;;;;;;;;;;;;;;;;;;;;;;;;;;;;;;;;;;;;;;;;;;;;;;;;;;;;;;;;;;;;;;;;;;;;;;;;;;;;;;;;;;;;;;;;;;;;;;;;;;;;;;;;;;;;;;;;;;;;;;;;;;;;;;;;;;;;;;;;;;;;;;;;;;;;;;;;;;238;Q_ICPMS_LA;;;279;;;;;;;;;;;;;;;;;0.04852;;;;0.282717;;;0.002086;0.058299;;;;;;;;0.0188;0.12578;0.00573;;;;;;;;;;;;;;;;;;;;;;;;;;;;;;;;;;;;125;120;120;PB206_U238 AGE;;;;;115;
2014;[18180] LIU LEI (2014);samp. HS01;;CENTRAL ASIAN FOLDBELT - MESOZOIC / CHINA - MESOZOIC / ZHEJIANG PROVINCE / HENGSHAN FORMATION;;29.4012;119.8638;29.4012;119.8638;;;OUTCROP;;;SUBAERIAL;VOLCANIC ROCK;TRACHYDACITE;;;;;;;;;;MINERAL / COMPONENT (INCL. GROUNDMASS);ZIRCON;HS01-20;;;PRIMARY;;;;;;;;;;;;;;;;;;;;;;;;;;;;;;;;;;;;;;;;;;;;;;;;;;;;;;;;;;;;;;;;;;;;;;;;;;;;;;;;;;;;;;;;;;;;;;;;;;;;;;;;;;;;;;;;;;;;;;;;;;;;;;;;;;;;;;;;;;;;;;;;;;;;;;;;;;;;;;;;;;;;;;;;;;;;;;;43;Q_ICPMS_LA;;;40;;;;;;;;;;;;;;;;;0.04996;;;;0.282747;;;0.001384;0.048847;;;;;;;;0.01821;0.12548;0.0053;;;;;;;;;;;;;;;;;;;;;;;;;;;;;;;;;;;;193;120;116;PB206_U238 AGE;;;;;107;
2014;[18350] CHEN LONG(2014)  [GeoReM [8456] ];samp. 09LZ26;;CENTRAL ASIAN FOLDBELT - MESOZOIC / CHINA - MESOZOIC / ANHUI PROVINCE / FUSHAN FORMATION;LUZONG AREA;30.8;117.3;31.1;117.6;;;OUTCROP;;;SUBAERIAL;VOLCANIC ROCK;TRACHYDACITE;PORPHYRITIC;;;;CRETACEOUS;LOWER;;;;WHOLE ROCK;;;;;;;;;;;;;62.38;0.64;;;18.62;;;;;;;;;2.81;;;;1.82;0.78;0.13;;;;;;;7.41;XRF;;;5.18;0.12;;;;;;;;;;;;;;;;;;;;;;;;;;;;;;;;;;;;;;;;;;;;;;;34;;;;1.2;0;0;279;21.5;;;;;229;ICPMS;;;88.3;ICPMS;;;29.8;ICPMS;;;470;ICPMS;;;32;ICPMS;;;;;;;;;;3;;;2.95;533;ICPMS;;;62.5;ICPMS;;;122;ICPMS;;;13.75;47.7;ICPMS;;;8.57;ICPMS;;;2.12;7.61;1.03;5.36;1.09;3.23;0.47;3.13;0.5;10.5;2.1;3;;;;;;;33;ICPMS;;;;;14.8;ICPMS;;;3.1;0.512367;;;;0.1086;0.718876;;;;7.512;18.1711;;;;15.521;;;38.222;;;0.282668;;;0.006764;;;;;;;;;;;;;;;;;;;;;;;;;;;;;;;;;;;;;;;;;;;;;;;;;;;;;;;;
2014;[18350] CHEN LONG(2014)  [GeoReM [8456] ];samp. 09LZ65;;CENTRAL ASIAN FOLDBELT - MESOZOIC / CHINA - MESOZOIC / ANHUI PROVINCE / SHUANGMIAO FORMATION;LUZONG AREA;30.8;117.3;31.1;117.6;;;OUTCROP;;;SUBAERIAL;VOLCANIC ROCK;TRACHYDACITE;PORPHYRITIC;;;;CRETACEOUS;LOWER;;;;WHOLE ROCK;;;;;;;;;;;;;61.59;0.75;;;19.45;;;;;;;;;2.8;;;;1.92;0.53;0.13;;;;;;;6.64;XRF;;;5.68;0.15;;;;;;;;;;;;;;;;;;;;;;;;;;;;;;;;;;;;;;;;;;;;;;;35;;;;1.6;0;0;85;22;;;;;222;ICPMS;;;326;ICPMS;;;33.2;ICPMS;;;548;ICPMS;;;39;ICPMS;;;;;;;;;;3;;;6.23;383;ICPMS;;;68;ICPMS;;;138.5;ICPMS;;;15.4;55.1;ICPMS;;;9.4;ICPMS;;;1.95;8.2;1.2;5.99;1.2;3.68;0.53;3.44;0.56;11.5;2.5;3;;;;;;;24;ICPMS;;;;;22.4;ICPMS;;;6.46;;;;;;;;;;;;;;;;;;;;;;;;;;;;;;;;;;;;;;;;;;;;;;;;;;;;;;;;;;;;;;;;;;;;;;;;;;;;;;;;
2014;[18350] CHEN LONG(2014)  [GeoReM [8456] ];samp. 09LZ67;;CENTRAL ASIAN FOLDBELT - MESOZOIC / CHINA - MESOZOIC / ANHUI PROVINCE / SHUANGMIAO FORMATION;LUZONG AREA;30.8;117.3;31.1;117.6;;;OUTCROP;;;SUBAERIAL;VOLCANIC ROCK;TRACHYDACITE;PORPHYRITIC;;;;CRETACEOUS;LOWER;;;;WHOLE ROCK;;;;;;;;;;;;;61.19;0.72;;;19.4;;;;;;;;;2.99;;;;2.41;0.62;0.15;;;;;;;6.61;XRF;;;5.41;0.16;;;;;;;;;;;;;;;;;;;;;;;;;;;;;;;;;;;;;;;;;;;;;;;35;;;;2;6;0;131;20.6;;;;;215;ICPMS;;;401;ICPMS;;;32.3;ICPMS;;;516;ICPMS;;;36.2;ICPMS;;;;;;;;;;3;;;4.59;383;ICPMS;;;65.5;ICPMS;;;135.5;ICPMS;;;15.2;53.8;ICPMS;;;9.24;ICPMS;;;1.9;8.01;1.15;5.96;1.16;3.56;0.52;3.39;0.57;11.3;2.4;2;;;;;;;32;ICPMS;;;;;21.7;ICPMS;;;5.87;0.512355;;;;0.1038;0.709287;;;;1.551;18.1901;;;;15.4943;;;38.1833;;;;;;;;;;;;;;;;;;;;;;;;;;;;;;;;;;;;;;;;;;;;;;;;;;;;;;;;;;;;;;
2014;[18350] CHEN LONG(2014)  [GeoReM [8456] ];samp. 09LZ68;;CENTRAL ASIAN FOLDBELT - MESOZOIC / CHINA - MESOZOIC / ANHUI PROVINCE / SHUANGMIAO FORMATION;LUZONG AREA;30.8;117.3;31.1;117.6;;;OUTCROP;;;SUBAERIAL;VOLCANIC ROCK;TRACHYDACITE;PORPHYRITIC;;;;CRETACEOUS;LOWER;;;;WHOLE ROCK;;;;;;;;;;;;;62.14;0.71;;;19.08;;;;;;;;;2.59;;;;2.51;0.5;0.12;;;;;;;6.63;XRF;;;5.38;0.16;;;;;;;;;;;;;;;;;;;;;;;;;;;;;;;;;;;;;;;;;;;;;;;38;;;;1.8;7;0;104;21.8;;;;;225;ICPMS;;;417;ICPMS;;;32.1;ICPMS;;;526;ICPMS;;;37.3;ICPMS;;;;;;;;;;3;;;4.21;430;ICPMS;;;67.1;ICPMS;;;136.5;ICPMS;;;15.55;54.4;ICPMS;;;9.31;ICPMS;;;2.01;8.07;1.2;6.06;1.14;3.58;0.56;3.55;0.55;11.3;2.5;2;;;;;;;26;ICPMS;;;;;21.6;ICPMS;;;6.04;;;;;;;;;;;;;;;;;;;;;;;;;;;;;;;;;;;;;;;;;;;;;;;;;;;;;;;;;;;;;;;;;;;;;;;;;;;;;;;;
2014;[18350] CHEN LONG(2014)  [GeoReM [8456] ];samp. 09LZ69;;CENTRAL ASIAN FOLDBELT - MESOZOIC / CHINA - MESOZOIC / ANHUI PROVINCE / SHUANGMIAO FORMATION;LUZONG AREA;30.8;117.3;31.1;117.6;;;OUTCROP;;;SUBAERIAL;VOLCANIC ROCK;TRACHYDACITE;PORPHYRITIC;;;;CRETACEOUS;LOWER;;;;WHOLE ROCK;;;;;;;;;;;;;62.67;0.75;;;19.29;;;;;;;;;2.83;;;;1.52;0.63;0.11;;;;;;;6.78;XRF;;;5.08;0.16;;;;;;;;;;;;;;;;;;;;;;;;;;;;;;;;;;;;;;;;;;;;;;;34;;;;2;10;0;169;21.2;;;;;230;ICPMS;;;397;ICPMS;;;31.9;ICPMS;;;506;ICPMS;;;36.7;ICPMS;;;;;;;;;;3;;;7.14;372;ICPMS;;;66.9;ICPMS;;;134.5;ICPMS;;;15.45;55.3;ICPMS;;;9.35;ICPMS;;;1.93;8.12;1.18;6.18;1.16;3.62;0.54;3.57;0.56;11.1;2.4;2;;;;;;;52;ICPMS;;;;;21.9;ICPMS;;;5.69;;;;;;;;;;;;;;;;;;;;;;;;;;;;;;;;;;;;;;;;;;;;;;;;;;;;;;;;;;;;;;;;;;;;;;;;;;;;;;;;
2014;[18350] CHEN LONG(2014)  [GeoReM [8456] ];samp. 09LZ70;;CENTRAL ASIAN FOLDBELT - MESOZOIC / CHINA - MESOZOIC / ANHUI PROVINCE / SHUANGMIAO FORMATION;LUZONG AREA;30.8;117.3;31.1;117.6;;;OUTCROP;;;SUBAERIAL;VOLCANIC ROCK;TRACHYDACITE;PORPHYRITIC;;;;CRETACEOUS;LOWER;;;;WHOLE ROCK;;;;;;;;;;;;;62.11;0.72;;;19.25;;;;;;;;;2.78;;;;2.49;0.51;0.13;;;;;;;6.57;XRF;;;5.04;0.16;;;;;;;;;;;;;;;;;;;;;;;;;;;;;;;;;;;;;;;;;;;;;;;34;;;;1.6;6;0;191;21.5;;;;;227;ICPMS;;;325;ICPMS;;;33.5;ICPMS;;;535;ICPMS;;;38.4;ICPMS;;;;;;;;;;3;;;6.29;299;ICPMS;;;70.3;ICPMS;;;143.5;ICPMS;;;16.5;59.4;ICPMS;;;10.15;ICPMS;;;1.98;8.52;1.24;6.43;1.21;3.66;0.54;3.64;0.53;11.3;2.6;2;;;;;;;50;ICPMS;;;;;22.4;ICPMS;;;5.39;;;;;;;;;;;;;;;;;;;;;;;;;;;;;;;;;;;;;;;;;;;;;;;;;;;;;;;;;;;;;;;;;;;;;;;;;;;;;;;;
2014;[18350] CHEN LONG(2014)  [GeoReM [8456] ];samp. 09LZ72;;CENTRAL ASIAN FOLDBELT - MESOZOIC / CHINA - MESOZOIC / ANHUI PROVINCE / SHUANGMIAO FORMATION;LUZONG AREA;30.8;117.3;31.1;117.6;;;OUTCROP;;;SUBAERIAL;VOLCANIC ROCK;TRACHYDACITE;PORPHYRITIC;;;;CRETACEOUS;LOWER;;;;WHOLE ROCK;;;;;;;;;;;;;62.48;0.74;;;19.75;;;;;;;;;2.3;;;;1.77;0.47;0.07;;;;;;;6.7;XRF;;;5.42;0.16;;;;;;;;;;;;;;;;;;;;;;;;;;;;;;;;;;;;;;;;;;;;;;;33;;;;1.3;0;5;230;21;;;;;218;ICPMS;;;440;ICPMS;;;32.1;ICPMS;;;487;ICPMS;;;34.4;ICPMS;;;;;;;;;;2;;;6.78;368;ICPMS;;;64.7;ICPMS;;;132;ICPMS;;;15.05;53.2;ICPMS;;;9.14;ICPMS;;;2.03;8.14;1.19;6.13;1.17;3.55;0.52;3.38;0.54;10.8;2.3;2;;;;;;;37;ICPMS;;;;;21.1;ICPMS;;;6.4;;;;;;;;;;;;;;;;;;;;;;;;;;;;;;;;;;;;;;;;;;;;;;;;;;;;;;;;;;;;;;;;;;;;;;;;;;;;;;;;
2014;[18350] CHEN LONG(2014)  [GeoReM [8456] ];samp. 09LZ73;;CENTRAL ASIAN FOLDBELT - MESOZOIC / CHINA - MESOZOIC / ANHUI PROVINCE / SHUANGMIAO FORMATION;LUZONG AREA;30.8;117.3;31.1;117.6;;;OUTCROP;;;SUBAERIAL;VOLCANIC ROCK;TRACHYDACITE;PORPHYRITIC;;;;CRETACEOUS;LOWER;;;;WHOLE ROCK;;;;;;;;;;;;;61.48;0.73;;;19.21;;;;;;;;;2.79;;;;2.3;0.55;0.14;;;;;;;6.97;XRF;;;5.54;0.15;;;;;;;;;;;;;;;;;;;;;;;;;;;;;;;;;;;;;;;;;;;;;;;33;;;;2;0;0;105;20.4;;;;;226;ICPMS;;;360;ICPMS;;;31.4;ICPMS;;;506;ICPMS;;;36.4;ICPMS;;;;;;;;;;3;;;4.96;411;ICPMS;;;64.9;ICPMS;;;131;ICPMS;;;15.2;53.2;ICPMS;;;8.94;ICPMS;;;1.85;7.94;1.15;6.04;1.14;3.55;0.51;3.39;0.56;11.2;2.5;2;;;;;;;22;ICPMS;;;;;21.4;ICPMS;;;6.66;0.512369;;;;0.1016;0.709553;;;;1.817;18.3121;;;;15.4902;;;38.2355;;;;;;;;;;;;;;;;;;;;;;;;;;;;;;;;;;;;;;;;;;;;;;;;;;;;;;;;;;;;;;
2014;[18350] CHEN LONG(2014)  [GeoReM [8456] ];samp. 09LZ74;;CENTRAL ASIAN FOLDBELT - MESOZOIC / CHINA - MESOZOIC / ANHUI PROVINCE / SHUANGMIAO FORMATION;LUZONG AREA;30.8;117.3;31.1;117.6;;;OUTCROP;;;SUBAERIAL;VOLCANIC ROCK;TRACHYDACITE;PORPHYRITIC;;;;CRETACEOUS;LOWER;;;;WHOLE ROCK;;;;;;;;;;;;;63.18;0.74;;;19.58;;;;;;;;;2.68;;;;1;0.51;0.05;;;;;;;7.02;XRF;;;4.93;0.16;;;;;;;;;;;;;;;;;;;;;;;;;;;;;;;;;;;;;;;;;;;;;;;36;;;;2.2;7;0;334;21.4;;;;;236;ICPMS;;;324;ICPMS;;;31.6;ICPMS;;;520;ICPMS;;;36.3;ICPMS;;;;;;;;;;3;;;5.59;357;ICPMS;;;65.7;ICPMS;;;132;ICPMS;;;14.9;54.1;ICPMS;;;9.14;ICPMS;;;2.02;8.19;1.18;6.39;1.18;3.62;0.54;3.6;0.55;11.5;2.4;3;;;;;;;42;ICPMS;;;;;22.1;ICPMS;;;5.21;;;;;;;;;;;;;;;;;;;;;;;;;;;;;;;;;;;;;;;;;;;;;;;;;;;;;;;;;;;;;;;;;;;;;;;;;;;;;;;;
2014;[18350] CHEN LONG(2014)  [GeoReM [8456] ];samp. 09LZ76;;CENTRAL ASIAN FOLDBELT - MESOZOIC / CHINA - MESOZOIC / ANHUI PROVINCE / SHUANGMIAO FORMATION;LUZONG AREA;30.8;117.3;31.1;117.6;;;OUTCROP;;;SUBAERIAL;VOLCANIC ROCK;TRACHYDACITE;PORPHYRITIC;;;;CRETACEOUS;LOWER;;;;WHOLE ROCK;;;;;;;;;;;;;62.22;0.75;;;19.78;;;;;;;;;2.69;;;;1.41;0.39;0.06;;;;;;;6.89;XRF;;;5.53;0.16;;;;;;;;;;;;;;;;;;;;;;;;;;;;;;;;;;;;;;;;;;;;;;;32;;;;2.9;12;0;272;21.4;;;;;220;ICPMS;;;320;ICPMS;;;32.1;ICPMS;;;508;ICPMS;;;36.4;ICPMS;;;;;;;;;;3;;;7.21;516;ICPMS;;;65.8;ICPMS;;;134;ICPMS;;;15.25;54.5;ICPMS;;;9.17;ICPMS;;;1.96;7.97;1.13;5.97;1.12;3.42;0.54;3.44;0.55;11;2.4;3;;;;;;;70;ICPMS;;;;;21.1;ICPMS;;;5.11;0.512398;;;;0.1017;0.709636;;;;1.989;18.1276;;;;15.5042;;;38.1446;;;0.282664;;;0.007102;;;;;;;;;;;;;;;;;;;;;;;;;;;;;;;;;;;;;;;;;;;;;;;;;;;;;;;;
2014;[18350] CHEN LONG(2014)  [GeoReM [8456] ];samp. 09LZ77;;CENTRAL ASIAN FOLDBELT - MESOZOIC / CHINA - MESOZOIC / ANHUI PROVINCE / SHUANGMIAO FORMATION;LUZONG AREA;30.8;117.3;31.1;117.6;;;OUTCROP;;;SUBAERIAL;VOLCANIC ROCK;TRACHYDACITE;PORPHYRITIC;;;;CRETACEOUS;LOWER;;;;WHOLE ROCK;;;;;;;;;;;;;62.47;0.75;;;19.9;;;;;;;;;2.84;;;;1.09;0.39;0.04;;;;;;;6.79;XRF;;;5.5;0.16;;;;;;;;;;;;;;;;;;;;;;;;;;;;;;;;;;;;;;;;;;;;;;;32;;;;4.2;13;0;384;20.7;;;;;219;ICPMS;;;309;ICPMS;;;31.6;ICPMS;;;531;ICPMS;;;37;ICPMS;;;;;;;;;;3;;;8.55;402;ICPMS;;;57.4;ICPMS;;;131.5;ICPMS;;;13.45;48.1;ICPMS;;;8.49;ICPMS;;;1.8;7.4;1.09;5.82;1.14;3.51;0.54;3.4;0.51;11.7;2.5;3;;;;;;;66;ICPMS;;;;;22.6;ICPMS;;;4.93;;;;;;;;;;;;;;;;;;;;;;;;;;;;;;;;;;;;;;;;;;;;;;;;;;;;;;;;;;;;;;;;;;;;;;;;;;;;;;;;
2014;[18350] CHEN LONG(2014)  [GeoReM [8456] ];samp. 09LZ78;;CENTRAL ASIAN FOLDBELT - MESOZOIC / CHINA - MESOZOIC / ANHUI PROVINCE / SHUANGMIAO FORMATION;LUZONG AREA;30.8;117.3;31.1;117.6;;;OUTCROP;;;SUBAERIAL;VOLCANIC ROCK;TRACHYDACITE;PORPHYRITIC;;;;CRETACEOUS;LOWER;;;;WHOLE ROCK;;;;;;;;;;;;;61.55;0.72;;;19.57;;;;;;;;;2.84;;;;2.2;0.41;0.11;;;;;;;6.49;XRF;;;5.76;0.16;;;;;;;;;;;;;;;;;;;;;;;;;;;;;;;;;;;;;;;;;;;;;;;39;;;;2.1;0;0;132;21;;;;;200;ICPMS;;;394;ICPMS;;;30.2;ICPMS;;;489;ICPMS;;;34.5;ICPMS;;;;;;;;;;3;;;14;452;ICPMS;;;62.9;ICPMS;;;128.5;ICPMS;;;14.7;52.7;ICPMS;;;8.89;ICPMS;;;1.87;7.52;1.07;5.54;1.06;3.25;0.47;3.27;0.5;10.4;2.3;3;;;;;;;42;ICPMS;;;;;19.85;ICPMS;;;5.48;;;;;;;;;;;;;;;;;;;;;;;;;;;;;;;;;;;;;;;;;;;;;;;;;;;;;;;;;;;;;;;;;;;;;;;;;;;;;;;;
2014;[18350] CHEN LONG(2014)  [GeoReM [8456] ];samp. 09LZ79;;CENTRAL ASIAN FOLDBELT - MESOZOIC / CHINA - MESOZOIC / ANHUI PROVINCE / SHUANGMIAO FORMATION;LUZONG AREA;30.8;117.3;31.1;117.6;;;OUTCROP;;;SUBAERIAL;VOLCANIC ROCK;TRACHYDACITE;PORPHYRITIC;;;;CRETACEOUS;LOWER;;;;WHOLE ROCK;;;;;;;;;;;;;62.23;0.74;;;19.22;;;;;;;;;2.68;;;;1.83;0.5;0.13;;;;;;;6.65;XRF;;;5.65;0.14;;;;;;;;;;;;;;;;;;;;;;;;;;;;;;;;;;;;;;;;;;;;;;;36;;;;1.9;5;0;169;22.1;;;;;230;ICPMS;;;299;ICPMS;;;36.1;ICPMS;;;590;ICPMS;;;42.6;ICPMS;;;;;;;;;;3;;;20.6;311;ICPMS;;;72.1;ICPMS;;;147;ICPMS;;;16.7;58.3;ICPMS;;;9.95;ICPMS;;;1.83;8.57;1.24;6.72;1.28;3.81;0.59;4.03;0.6;12.9;2.7;4;;;;;;;48;ICPMS;;;;;24.7;ICPMS;;;6.96;;;;;;;;;;;;;;;;;;;;;;;;;;;;;;;;;;;;;;;;;;;;;;;;;;;;;;;;;;;;;;;;;;;;;;;;;;;;;;;;
2014;[18350] CHEN LONG(2014)  [GeoReM [8456] ];samp. 09LZ80;;CENTRAL ASIAN FOLDBELT - MESOZOIC / CHINA - MESOZOIC / ANHUI PROVINCE / SHUANGMIAO FORMATION;LUZONG AREA;30.8;117.3;31.1;117.6;;;OUTCROP;;;SUBAERIAL;VOLCANIC ROCK;TRACHYDACITE;PORPHYRITIC;;;;CRETACEOUS;LOWER;;;;WHOLE ROCK;;;;;;;;;;;;;62.25;0.74;;;19.58;;;;;;;;;2.51;;;;1.73;0.47;0.09;;;;;;;6.74;XRF;;;5.66;0.15;;;;;;;;;;;;;;;;;;;;;;;;;;;;;;;;;;;;;;;;;;;;;;;36;;;;1.9;7;0;189;22.1;;;;;225;ICPMS;;;305;ICPMS;;;33.6;ICPMS;;;553;ICPMS;;;40;ICPMS;;;;;;;;;;3;;;7.58;396;ICPMS;;;68.7;ICPMS;;;142;ICPMS;;;16.1;57.1;ICPMS;;;9.59;ICPMS;;;1.94;8.22;1.22;6.25;1.23;3.63;0.56;3.73;0.58;11.4;2.5;3;;;;;;;52;ICPMS;;;;;23;ICPMS;;;6.21;0.512398;;;;0.1015;0.709878;;;;2.135;18.1721;;;;15.5106;;;38.191;;;0.282677;;;0.007227;;;;;;;;;;;;;;;;;;;;;;;;;;;;;;;;;;;;;;;;;;;;;;;;;;;;;;;;
2014;[18350] CHEN LONG(2014)  [GeoReM [8456] ];samp. 09LZ82;;CENTRAL ASIAN FOLDBELT - MESOZOIC / CHINA - MESOZOIC / ANHUI PROVINCE / SHUANGMIAO FORMATION;LUZONG AREA;30.8;117.3;31.1;117.6;;;OUTCROP;;;SUBAERIAL;VOLCANIC ROCK;TRACHYDACITE;PORPHYRITIC;;;;CRETACEOUS;LOWER;;;;WHOLE ROCK;;;;;;;;;;;;;61.87;0.72;;;19.45;;;;;;;;;2.47;;;;2.08;0.48;0.12;;;;;;;6.56;XRF;;;5.8;0.15;;;;;;;;;;;;;;;;;;;;;;;;;;;;;;;;;;;;;;;;;;;;;;;33;;;;1.7;5;0;125;21.9;;;;;222;ICPMS;;;340;ICPMS;;;35.9;ICPMS;;;597;ICPMS;;;41.3;ICPMS;;;;;;;;;;3;;;33.1;438;ICPMS;;;71.6;ICPMS;;;149;ICPMS;;;17;59.2;ICPMS;;;9.68;ICPMS;;;1.92;8.7;1.31;6.81;1.26;3.86;0.57;3.79;0.6;12.7;2.8;4;;;;;;;26;ICPMS;;;;;24.7;ICPMS;;;6.59;0.512398;;;;0.0989;0.709647;;;;1.889;18.2638;;;;15.4968;;;38.2558;;;0.282672;;;0.006711;;;;;;;;;;;;;;;;;;;;;;;;;;;;;;;;;;;;;;;;;;;;;;;;;;;;;;;;
2014;[18350] CHEN LONG(2014)  [GeoReM [8456] ];samp. 09LZ26;;CENTRAL ASIAN FOLDBELT - MESOZOIC / CHINA - MESOZOIC / ANHUI PROVINCE / FUSHAN FORMATION;LUZONG AREA;30.8;117.3;31.1;117.6;;;OUTCROP;;;SUBAERIAL;VOLCANIC ROCK;TRACHYDACITE;PORPHYRITIC;;;;CRETACEOUS;LOWER;;;;MINERAL / COMPONENT (INCL. GROUNDMASS);ZIRCON;;;;PRIMARY;;;;;;;;;;;;;;;;;;;;;;;;;;;;;;;;;;;;;;;;;;;;;;;;;;;;;;;;;;;;;;;;;;;;;;;;;;;;;;;;;;;;;;;;;;;;;;;;;;;;;;;;;;;;;;;;;;;;;;;;;;;;;;;;;;;;;;;;;;;;;;;;;;;;;;;;;;;;;;;;;;;;;;;;;19.84;Q_ICPMS_LA;;;;;771;Q_ICPMS_LA;;;152;;;;;;;;;;;;;;;;;;;;;;;;;;;;;;;;;;;;;;;;;;;;;;;;;;;;;;;;;;;;;;;;;;;;;;;;108;113;PB206_U238 AGE;;;;;;
2014;[18350] CHEN LONG(2014)  [GeoReM [8456] ];samp. 09LZ26;;CENTRAL ASIAN FOLDBELT - MESOZOIC / CHINA - MESOZOIC / ANHUI PROVINCE / FUSHAN FORMATION;LUZONG AREA;30.8;117.3;31.1;117.6;;;OUTCROP;;;SUBAERIAL;VOLCANIC ROCK;TRACHYDACITE;PORPHYRITIC;;;;CRETACEOUS;LOWER;;;;MINERAL / COMPONENT (INCL. GROUNDMASS);ZIRCON;;;;PRIMARY;;;;;;;;;;;;;;;;;;;;;;;;;;;;;;;;;;;;;;;;;;;;;;;;;;;;;;;;;;;;;;;;;;;;;;;;;;;;;;;;;;;;;;;;;;;;;;;;;;;;;;;;;;;;;;;;;;;;;;;;;;;;;;;;;;;;;;;;;;;;;;;;;;;;;;;;;;;;;;;;;;;;;;;;;9.65;Q_ICPMS_LA;;;;;598;Q_ICPMS_LA;;;110;;;;;;;;;;;;;;;;;;;;;;;;;;;;;;;;;;;;;;;;;;;;;;;;;;;;;;;;;;;;;;;;;;;;;;;;63;64;PB206_U238 AGE;;;;;;
2014;[18350] CHEN LONG(2014)  [GeoReM [8456] ];samp. 09LZ26;;CENTRAL ASIAN FOLDBELT - MESOZOIC / CHINA - MESOZOIC / ANHUI PROVINCE / FUSHAN FORMATION;LUZONG AREA;30.8;117.3;31.1;117.6;;;OUTCROP;;;SUBAERIAL;VOLCANIC ROCK;TRACHYDACITE;PORPHYRITIC;;;;CRETACEOUS;LOWER;;;;MINERAL / COMPONENT (INCL. GROUNDMASS);ZIRCON;;;;PRIMARY;;;;;;;;;;;;;;;;;;;;;;;;;;;;;;;;;;;;;;;;;;;;;;;;;;;;;;;;;;;;;;;;;;;;;;;;;;;;;;;;;;;;;;;;;;;;;;;;;;;;;;;;;;;;;;;;;;;;;;;;;;;;;;;;;;;;;;;;;;;;;;;;;;;;;;;;;;;;;;;;;;;;;;;;;80.23;Q_ICPMS_LA;;;;;5015;Q_ICPMS_LA;;;827;;;;;;;;;;;;;;;;;;;;;;;;;;;;;;;;;;;;;;;;;;;;;;;;;;;;;;;;;;;;;;;;;;;;;;;;104;109;PB206_U238 AGE;;;;;;