Year;CITATION;SAMPLE NAME;UNIQUE_ID;LOCATION;LOCATION COMMENT;LATITUDE (MIN.);LONGITUDE (MIN.);LATITUDE (MAX.);LONGITUDE (MAX.);ELEVATION (MIN.);ELEVATION (MAX.);SAMPLING TECHNIQUE;DRILLING DEPTH (MIN.);DRILLING DEPTH (MAX.);LAND/SEA (SAMPLING);ROCK TYPE;ROCK NAME;ROCK TEXTURE;SAMPLE COMMENT;AGE (MIN.);AGE (MAX.);GEOLOGICAL AGE;GEOLOGICAL AGE PREFIX;ERUPTION YEAR;ALTERATION;ALTERATION TYPE;TYPE OF MATERIAL;MINERAL / COMPONENT;SPOT (MINERAL);CRYSTAL;RIM / CORE (MINERAL GRAINS);PRIMARY/SECONDARY;INCLUSION TYPE;SPOT (INCLUSION);MINERAL (INCLUSION);RIM / CORE (INCLUSION);HOSTMINERAL (INCLUSION);HEATING;HEATING TEMPERATURE (?C);SIO2(WT%);TIO2(WT%);ZRO2(WT%);B2O3(WT%);AL2O3(WT%);CR2O3(WT%);LA2O3(WT%);CE2O3(WT%);Y2O3(WT%);V2O3(WT%);NB2O3(WT%);TA2O5(WT%);WO3(WT%);FE2O3T(WT%);FE2O3(WT%);FEOT(WT%);FEO(WT%);CAO(WT%);MGO(WT%);MNO(WT%);BAO(WT%);SRO(WT%);NIO(WT%);ZNO(WT%);CS2O(WT%);RB2O(WT%);K2O(WT%);;;;NA2O(WT%);P2O5(WT%);H2O(WT%);;;;H2OP(WT%);H2OM(WT%);CO2(WT%);C(WT%);F(WT%);CL(WT%);SO2(WT%);SO3(WT%);S(WT%);LOI(WT%);AL(WT%);TI(WT%);FE(WT%);MG(WT%);CA(WT%);K(WT%);NA(WT%);LI(PPM);BE(PPM);B(PPM);C(PPM);F(PPM);NA(PPM);MG(PPM);AL(PPM);P(PPM);S(PPM);CL(PPM);AR40(AT/G);AR40(CCMSTP/G);AR40(MOL/G);AR40(PPB);K(PPM);CA(PPM);SC(PPM);;;;TI(PPM);;;;V(PPM);CR(PPM);MN(PPM);FE(PPM);CO(PPM);NI(PPM);CU(PPM);ZN(PPM);GA(PPM);GE(PPM);AS(PPM);SE(PPM);BR(PPM);RB(PPM): altern. values or methods;;;;SR(PPM): altern. values or methods;;;;Y(PPM): altern. values or methods;;;;ZR(PPM): altern. values or methods;;;;NB(PPM): altern. values or methods;;;;MO(PPM): altern. values or methods;;;;AG(PPM);CD(PPM);IN(PPM);SN(PPM);SB(PPM);TE(PPM);CS(PPM);BA(PPM): altern. values or methods;;;;LA(PPM): altern. values or methods;;;;CE(PPM): altern. values or methods;;;;PR(PPM);ND(PPM): altern. values or methods;;;;SM(PPM): altern. values or methods;;;;EU(PPM);GD(PPM);TB(PPM);DY(PPM);HO(PPM);ER(PPM);TM(PPM);YB(PPM);LU(PPM);HF(PPM);TA(PPM);W(PPM);RE(PPM);AU(PPM);AU(PPB);HG(PPM);HG(PPB);TL(PPM);PB(PPM): altern. values or methods;;;;PB206(PPM);BI(PPM);TH(PPM): altern. values or methods;;;;U(PPM);ND143_ND144;ND143_ND144_INI;EPSILON_ND;EPSILON_ND_INI;SM147_ND144;SR87_SR86;SR87_SR86_INI;EPSILON_SR;EPSILON_SR_INI;RB87_SR86;PB206_PB204;PB206_PB204_INI;PB206_PB207;PB206_PB208;PB207_PB204;PB207_PB204_INI;PB207_PB206;PB208_PB204;PB208_PB204_INI;PB208_PB206;HF176_HF177;HF176_HF177_INI;EPSILON_HF_INI;LU176_HF177;YB176_HF177;AR36_AR39;AR36_AR40;AR37_AR39;AR38_AR39;AR39_AR40;AR40_AR36;AR40_AR39;PB206_U238;PB207_U235;PB208_TH232;TH232_PB204;TH232_U238;U235_PB204;U238_PB204;U238_PB206;D7LI(VS LSVEC);D18O(PER MIL);D18O(VS SMOW);D18O(VS VSMOW);D56FE(VS IRMM-014);D57FE(VS IRMM-014);DD(VS SMOW);ALBITE(MOL%);ANORTHITE(MOL%);CA OLIVINE(MOL%);ENSTATITE(MOL%);FAYALITE(MOL%);FORSTERITE(MOL%);FERROSILITE(MOL%);ORTHOCLASE(MOL%);TEPHROITE(MOL%);ULVOSPINEL(MOL%);WOLLASTONITE(MOL%);AGE(KA): altern. values or methods;;;;AGE(MA): altern. values or methods;;;;;;;;AGE_PB207_PB206(MA);AGE_PB207_U235(MA);AGE_PB206_U238(MA): altern. values or methods;;;;;;AGE_PB208_TH232(MA);
2007;[16462] JANASI V. A. (2007);samp. OU-02;;PARANA / NORTHERN PARANA PROVINCE / SERRA GERAL FORMATION;PIRAJU-OURINHOS REGION, SAO PAULO;-23;-49;-23.3;-50;;;OUTCROP;;;SUBAERIAL;VOLCANIC ROCK;TRACHYDACITE;;LAVA FLOW, GLASSY GRAY;;;CRETACEOUS;LOWER;;;;MINERAL / COMPONENT (INCL. GROUNDMASS);(AL)KALIFELDSPAR;;GROUNDMASS;;PRIMARY;;;;;;;;64.95;0.03;;;20.37;;;;;;;;;;;0.58;;2.02;0.03;0;;;;;;;4.21;EMP (EPMA);;;6.86;;;;;;;;;;;;;;;;;;;;;;;;;;;;;;;;;;;;;;;;;;;;;;;;;;;;;;;;;;;;;;;;;;;;;;;;;;;;;;;;;;;;;;;;;;;;;;;;;;;;;;;;;;;;;;;;;;;;;;;;;;;;;;;;;;;;;;;;;;;;;;;;;;;;;;;;;;;;;;;;;;;;;;;;;;;;;;;;;;;;;;;;;;;;;63.8;10.4;;;;;;25.8;;;;;;;;;;;;;;;;;;;;;;;;;
2007;[16462] JANASI V. A. (2007);samp. OU-02;;PARANA / NORTHERN PARANA PROVINCE / SERRA GERAL FORMATION;PIRAJU-OURINHOS REGION, SAO PAULO;-23;-49;-23.3;-50;;;OUTCROP;;;SUBAERIAL;VOLCANIC ROCK;TRACHYDACITE;;LAVA FLOW, GLASSY GRAY;;;CRETACEOUS;LOWER;;;;MINERAL / COMPONENT (INCL. GROUNDMASS);(AL)KALIFELDSPAR;;;RIM;PRIMARY;;;;;;;;66.33;0.39;;;18.57;;;;;;;;;;;1.29;;0.97;0.15;0;;;;;;;6.61;EMP (EPMA);;;5.51;;;;;;;;;;;;;;;;;;;;;;;;;;;;;;;;;;;;;;;;;;;;;;;;;;;;;;;;;;;;;;;;;;;;;;;;;;;;;;;;;;;;;;;;;;;;;;;;;;;;;;;;;;;;;;;;;;;;;;;;;;;;;;;;;;;;;;;;;;;;;;;;;;;;;;;;;;;;;;;;;;;;;;;;;;;;;;;;;;;;;;;;;;;;;53.9;3.6;;;;;;42.5;;;;;;;;;;;;;;;;;;;;;;;;;
2007;[16462] JANASI V. A. (2007);samp. OU-02;;PARANA / NORTHERN PARANA PROVINCE / SERRA GERAL FORMATION;PIRAJU-OURINHOS REGION, SAO PAULO;-23;-49;-23.3;-50;;;OUTCROP;;;SUBAERIAL;VOLCANIC ROCK;TRACHYDACITE;;LAVA FLOW, GLASSY GRAY;;;CRETACEOUS;LOWER;;;;MINERAL / COMPONENT (INCL. GROUNDMASS);(AL)KALIFELDSPAR;;;CORE;PRIMARY;;;;;;;;64.26;0.12;;;21.38;;;;;;;;;;;0.51;;2.86;0.01;0.09;;;;;;;2.35;EMP (EPMA);;;8.02;;;;;;;;;;;;;;;;;;;;;;;;;;;;;;;;;;;;;;;;;;;;;;;;;;;;;;;;;;;;;;;;;;;;;;;;;;;;;;;;;;;;;;;;;;;;;;;;;;;;;;;;;;;;;;;;;;;;;;;;;;;;;;;;;;;;;;;;;;;;;;;;;;;;;;;;;;;;;;;;;;;;;;;;;;;;;;;;;;;;;;;;;;;;;71.9;14.2;;;;;;13.9;;;;;;;;;;;;;;;;;;;;;;;;;
2007;[16462] JANASI V. A. (2007);samp. OU-14;;PARANA / NORTHERN PARANA PROVINCE / SERRA GERAL FORMATION;PIRAJU-OURINHOS REGION, SAO PAULO;-23;-49;-23.3;-50;;;OUTCROP;;;SUBAERIAL;VOLCANIC ROCK;TRACHYDACITE;;LAVA FLOW, CHOCOLATE BROWN;;;CRETACEOUS;LOWER;;;;MINERAL / COMPONENT (INCL. GROUNDMASS);(AL)KALIFELDSPAR;;MICROPHENOCRYST;;PRIMARY;;;;;;;;69.71;0.09;;;16.41;;;;;;;;;;;0.81;;0.38;0.09;0;;;;;;;8.4;EMP (EPMA);;;3.89;;;;;;;;;;;;;;;;;;;;;;;;;;;;;;;;;;;;;;;;;;;;;;;;;;;;;;;;;;;;;;;;;;;;;;;;;;;;;;;;;;;;;;;;;;;;;;;;;;;;;;;;;;;;;;;;;;;;;;;;;;;;;;;;;;;;;;;;;;;;;;;;;;;;;;;;;;;;;;;;;;;;;;;;;;;;;;;;;;;;;;;;;;;;;40.4;2.2;;;;;;57.4;;;;;;;;;;;;;;;;;;;;;;;;;
2007;[16462] JANASI V. A. (2007);samp. OU-14;;PARANA / NORTHERN PARANA PROVINCE / SERRA GERAL FORMATION;PIRAJU-OURINHOS REGION, SAO PAULO;-23;-49;-23.3;-50;;;OUTCROP;;;SUBAERIAL;VOLCANIC ROCK;TRACHYDACITE;;LAVA FLOW, CHOCOLATE BROWN;;;CRETACEOUS;LOWER;;;;MINERAL / COMPONENT (INCL. GROUNDMASS);(AL)KALIFELDSPAR;;;CORE;PRIMARY;;;;;;;;65.69;0.13;;;18.36;;;;;;;;;;;1.68;;0.71;0.07;0.02;;;;;;;8.15;EMP (EPMA);;;4.49;;;;;;;;;;;;;;;;;;;;;;;;;;;;;;;;;;;;;;;;;;;;;;;;;;;;;;;;;;;;;;;;;;;;;;;;;;;;;;;;;;;;;;;;;;;;;;;;;;;;;;;;;;;;;;;;;;;;;;;;;;;;;;;;;;;;;;;;;;;;;;;;;;;;;;;;;;;;;;;;;;;;;;;;;;;;;;;;;;;;;;;;;;;;;43.8;3.8;;;;;;52.4;;;;;;;;;;;;;;;;;;;;;;;;;
2007;[16462] JANASI V. A. (2007);samp. OU-01A;;PARANA / NORTHERN PARANA PROVINCE / SERRA GERAL FORMATION;PIRAJU-OURINHOS REGION, SAO PAULO;-23;-49;-23.3;-50;;;OUTCROP;;;SUBAERIAL;VOLCANIC ROCK;TRACHYDACITE;;LAVA FLOW, GLASSY GRAY;;;CRETACEOUS;LOWER;;;;MINERAL / COMPONENT (INCL. GROUNDMASS);CLINOPYROXENE;;PHENOCRYST;RIM;PRIMARY;;;;;;;;50.06;0.54;;;1.01;;;;;;;;;;;17.54;;16.59;11.84;0.71;;;;;;;;;;;0.2;;;;;;;;;;;;;;;;;;;;;;;;;;;;;;;;;;;;;;;;;;;;;;;;;;;;;;;;;;;;;;;;;;;;;;;;;;;;;;;;;;;;;;;;;;;;;;;;;;;;;;;;;;;;;;;;;;;;;;;;;;;;;;;;;;;;;;;;;;;;;;;;;;;;;;;;;;;;;;;;;;;;;;;;;;;;;;;;;;;;;;;;;;;;;;;;34.82;;;30.12;;;;35.06;;;;;;;;;;;;;;;;;;;;;;
2007;[16462] JANASI V. A. (2007);samp. OU-01A;;PARANA / NORTHERN PARANA PROVINCE / SERRA GERAL FORMATION;PIRAJU-OURINHOS REGION, SAO PAULO;-23;-49;-23.3;-50;;;OUTCROP;;;SUBAERIAL;VOLCANIC ROCK;TRACHYDACITE;;LAVA FLOW, GLASSY GRAY;;;CRETACEOUS;LOWER;;;;MINERAL / COMPONENT (INCL. GROUNDMASS);CLINOPYROXENE;;PHENOCRYST;CORE;PRIMARY;;;;;;;;50.11;0.65;;;1.25;;;;;;;;;;;15.88;;16.77;13.21;0.55;;;;;;;;;;;0.2;;;;;;;;;;;;;;;;;;;;;;;;;;;;;;;;;;;;;;;;;;;;;;;;;;;;;;;;;;;;;;;;;;;;;;;;;;;;;;;;;;;;;;;;;;;;;;;;;;;;;;;;;;;;;;;;;;;;;;;;;;;;;;;;;;;;;;;;;;;;;;;;;;;;;;;;;;;;;;;;;;;;;;;;;;;;;;;;;;;;;;;;;;;;;;;;38.31;;;26.74;;;;34.95;;;;;;;;;;;;;;;;;;;;;;
2007;[16462] JANASI V. A. (2007);samp. OU-01A;;PARANA / NORTHERN PARANA PROVINCE / SERRA GERAL FORMATION;PIRAJU-OURINHOS REGION, SAO PAULO;-23;-49;-23.3;-50;;;OUTCROP;;;SUBAERIAL;VOLCANIC ROCK;TRACHYDACITE;;LAVA FLOW, GLASSY GRAY;;;CRETACEOUS;LOWER;;;;MINERAL / COMPONENT (INCL. GROUNDMASS);CLINOPYROXENE;;MICROPHENOCRYST;RIM;PRIMARY;;;;;;;;50.64;0.67;;;1.18;;;;;;;;;;;15.7;;17.16;13.17;0.64;;;;;;;;;;;0.22;;;;;;;;;;;;;;;;;;;;;;;;;;;;;;;;;;;;;;;;;;;;;;;;;;;;;;;;;;;;;;;;;;;;;;;;;;;;;;;;;;;;;;;;;;;;;;;;;;;;;;;;;;;;;;;;;;;;;;;;;;;;;;;;;;;;;;;;;;;;;;;;;;;;;;;;;;;;;;;;;;;;;;;;;;;;;;;;;;;;;;;;;;;;;;;;37.94;;;26.53;;;;;;;;;;;;;;;;;;;;;;;;;;
2007;[16462] JANASI V. A. (2007);samp. OU-01A;;PARANA / NORTHERN PARANA PROVINCE / SERRA GERAL FORMATION;PIRAJU-OURINHOS REGION, SAO PAULO;-23;-49;-23.3;-50;;;OUTCROP;;;SUBAERIAL;VOLCANIC ROCK;TRACHYDACITE;;LAVA FLOW, GLASSY GRAY;;;CRETACEOUS;LOWER;;;;MINERAL / COMPONENT (INCL. GROUNDMASS);CLINOPYROXENE;;MICROPHENOCRYST;CORE;PRIMARY;;;;;;;;50.38;0.69;;;1.31;;;;;;;;;;;15.42;;17.07;13.17;0.67;;;;;;;;;;;0.2;;;;;;;;;;;;;;;;;;;;;;;;;;;;;;;;;;;;;;;;;;;;;;;;;;;;;;;;;;;;;;;;;;;;;;;;;;;;;;;;;;;;;;;;;;;;;;;;;;;;;;;;;;;;;;;;;;;;;;;;;;;;;;;;;;;;;;;;;;;;;;;;;;;;;;;;;;;;;;;;;;;;;;;;;;;;;;;;;;;;;;;;;;;;;;;;38.21;;;26.2;;;;35.59;;;;;;;;;;;;;;;;;;;;;;
2007;[16462] JANASI V. A. (2007);samp. OU-02;;PARANA / NORTHERN PARANA PROVINCE / SERRA GERAL FORMATION;PIRAJU-OURINHOS REGION, SAO PAULO;-23;-49;-23.3;-50;;;OUTCROP;;;SUBAERIAL;VOLCANIC ROCK;TRACHYDACITE;;LAVA FLOW, GLASSY GRAY;;;CRETACEOUS;LOWER;;;;MINERAL / COMPONENT (INCL. GROUNDMASS);CLINOPYROXENE;;PHENOCRYST;RIM;PRIMARY;;;;;;;;50.47;0.69;;;1.3;;;;;;;;;;;15.72;;17.17;12.97;0.6;;;;;;;;;;;0.24;;;;;;;;;;;;;;;;;;;;;;;;;;;;;;;;;;;;;;;;;;;;;;;;;;;;;;;;;;;;;;;;;;;;;;;;;;;;;;;;;;;;;;;;;;;;;;;;;;;;;;;;;;;;;;;;;;;;;;;;;;;;;;;;;;;;;;;;;;;;;;;;;;;;;;;;;;;;;;;;;;;;;;;;;;;;;;;;;;;;;;;;;;;;;;;;37.63;;;26.57;;;;35.8;;;;;;;;;;;;;;;;;;;;;;
2007;[16462] JANASI V. A. (2007);samp. OU-02;;PARANA / NORTHERN PARANA PROVINCE / SERRA GERAL FORMATION;PIRAJU-OURINHOS REGION, SAO PAULO;-23;-49;-23.3;-50;;;OUTCROP;;;SUBAERIAL;VOLCANIC ROCK;TRACHYDACITE;;LAVA FLOW, GLASSY GRAY;;;CRETACEOUS;LOWER;;;;MINERAL / COMPONENT (INCL. GROUNDMASS);CLINOPYROXENE;;PHENOCRYST;CORE;PRIMARY;;;;;;;;50.23;0.7;;;1.26;;;;;;;;;;;15.7;;16.98;13.19;0.62;;;;;;;;;;;0.22;;;;;;;;;;;;;;;;;;;;;;;;;;;;;;;;;;;;;;;;;;;;;;;;;;;;;;;;;;;;;;;;;;;;;;;;;;;;;;;;;;;;;;;;;;;;;;;;;;;;;;;;;;;;;;;;;;;;;;;;;;;;;;;;;;;;;;;;;;;;;;;;;;;;;;;;;;;;;;;;;;;;;;;;;;;;;;;;;;;;;;;;;;;;;;;;38.17;;;26.51;;;;35.32;;;;;;;;;;;;;;;;;;;;;;
2007;[16462] JANASI V. A. (2007);samp. OU-02;;PARANA / NORTHERN PARANA PROVINCE / SERRA GERAL FORMATION;PIRAJU-OURINHOS REGION, SAO PAULO;-23;-49;-23.3;-50;;;OUTCROP;;;SUBAERIAL;VOLCANIC ROCK;TRACHYDACITE;;LAVA FLOW, GLASSY GRAY;;;CRETACEOUS;LOWER;;;;MINERAL / COMPONENT (INCL. GROUNDMASS);CLINOPYROXENE;;;CORE;PRIMARY;;;;;;;;50.63;0.58;;;1.22;;;;;;;;;;;15.93;;16.71;13.23;0.68;;;;;;;;;;;0.23;;;;;;;;;;;;;;;;;;;;;;;;;;;;;;;;;;;;;;;;;;;;;;;;;;;;;;;;;;;;;;;;;;;;;;;;;;;;;;;;;;;;;;;;;;;;;;;;;;;;;;;;;;;;;;;;;;;;;;;;;;;;;;;;;;;;;;;;;;;;;;;;;;;;;;;;;;;;;;;;;;;;;;;;;;;;;;;;;;;;;;;;;;;;;;;;38.28;;;26.97;;;;34.75;;;;;;;;;;;;;;;;;;;;;;
2007;[16462] JANASI V. A. (2007);samp. OU-02;;PARANA / NORTHERN PARANA PROVINCE / SERRA GERAL FORMATION;PIRAJU-OURINHOS REGION, SAO PAULO;-23;-49;-23.3;-50;;;OUTCROP;;;SUBAERIAL;VOLCANIC ROCK;TRACHYDACITE;;LAVA FLOW, GLASSY GRAY;;;CRETACEOUS;LOWER;;;;MINERAL / COMPONENT (INCL. GROUNDMASS);PIGEONITE;;MICROPHENOCRYST;RIM;PRIMARY;;;;;;;;50.49;0.33;;;0.64;;;;;;;;;;;26.84;;4.83;15.51;1.03;;;;;;;;;;;0.06;;;;;;;;;;;;;;;;;;;;;;;;;;;;;;;;;;;;;;;;;;;;;;;;;;;;;;;;;;;;;;;;;;;;;;;;;;;;;;;;;;;;;;;;;;;;;;;;;;;;;;;;;;;;;;;;;;;;;;;;;;;;;;;;;;;;;;;;;;;;;;;;;;;;;;;;;;;;;;;;;;;;;;;;;;;;;;;;;;;;;;;;;;;;;;;;44.8;;;45.18;;;;10.03;;;;;;;;;;;;;;;;;;;;;;
2007;[16462] JANASI V. A. (2007);samp. OU-02;;PARANA / NORTHERN PARANA PROVINCE / SERRA GERAL FORMATION;PIRAJU-OURINHOS REGION, SAO PAULO;-23;-49;-23.3;-50;;;OUTCROP;;;SUBAERIAL;VOLCANIC ROCK;TRACHYDACITE;;LAVA FLOW, GLASSY GRAY;;;CRETACEOUS;LOWER;;;;MINERAL / COMPONENT (INCL. GROUNDMASS);PIGEONITE;;MICROPHENOCRYST;CORE;PRIMARY;;;;;;;;51.36;0.62;;;0.45;;;;;;;;;;;24.76;;4.77;16.85;0.99;;;;;;;;;;;0.06;;;;;;;;;;;;;;;;;;;;;;;;;;;;;;;;;;;;;;;;;;;;;;;;;;;;;;;;;;;;;;;;;;;;;;;;;;;;;;;;;;;;;;;;;;;;;;;;;;;;;;;;;;;;;;;;;;;;;;;;;;;;;;;;;;;;;;;;;;;;;;;;;;;;;;;;;;;;;;;;;;;;;;;;;;;;;;;;;;;;;;;;;;;;;;;;48.52;;;41.61;;;;9.87;;;;;;;;;;;;;;;;;;;;;;
2007;[16462] JANASI V. A. (2007);samp. OU-07;;PARANA / NORTHERN PARANA PROVINCE / SERRA GERAL FORMATION;PIRAJU-OURINHOS REGION, SAO PAULO;-23;-49;-23.3;-50;;;OUTCROP;;;SUBAERIAL;VOLCANIC ROCK;TRACHYDACITE;;LAVA FLOW, GRANULAR;;;CRETACEOUS;LOWER;;;;MINERAL / COMPONENT (INCL. GROUNDMASS);PIGEONITE;;;CORE;PRIMARY;;;;;;;;50.47;0.43;;;0.62;;;;;;;;;;;24.71;;4.78;16.42;0.95;;;;;;;;;;;0.07;;;;;;;;;;;;;;;;;;;;;;;;;;;;;;;;;;;;;;;;;;;;;;;;;;;;;;;;;;;;;;;;;;;;;;;;;;;;;;;;;;;;;;;;;;;;;;;;;;;;;;;;;;;;;;;;;;;;;;;;;;;;;;;;;;;;;;;;;;;;;;;;;;;;;;;;;;;;;;;;;;;;;;;;;;;;;;;;;;;;;;;;;;;;;;;;47.93;;;42.04;;;;10.03;;;;;;;;;;;;;;;;;;;;;;
2007;[16462] JANASI V. A. (2007);samp. OU-07;;PARANA / NORTHERN PARANA PROVINCE / SERRA GERAL FORMATION;PIRAJU-OURINHOS REGION, SAO PAULO;-23;-49;-23.3;-50;;;OUTCROP;;;SUBAERIAL;VOLCANIC ROCK;TRACHYDACITE;;LAVA FLOW, GRANULAR;;;CRETACEOUS;LOWER;;;;MINERAL / COMPONENT (INCL. GROUNDMASS);CLINOPYROXENE;;PHENOCRYST;RIM;PRIMARY;;;;;;;;50.06;0.63;;;1.2;;;;;;;;;;;15.49;;17.01;13.08;0.61;;;;;;;;;;;0.18;;;;;;;;;;;;;;;;;;;;;;;;;;;;;;;;;;;;;;;;;;;;;;;;;;;;;;;;;;;;;;;;;;;;;;;;;;;;;;;;;;;;;;;;;;;;;;;;;;;;;;;;;;;;;;;;;;;;;;;;;;;;;;;;;;;;;;;;;;;;;;;;;;;;;;;;;;;;;;;;;;;;;;;;;;;;;;;;;;;;;;;;;;;;;;;;38.08;;;26.33;;;;35.59;;;;;;;;;;;;;;;;;;;;;;
2007;[16462] JANASI V. A. (2007);samp. OU-07;;PARANA / NORTHERN PARANA PROVINCE / SERRA GERAL FORMATION;PIRAJU-OURINHOS REGION, SAO PAULO;-23;-49;-23.3;-50;;;OUTCROP;;;SUBAERIAL;VOLCANIC ROCK;TRACHYDACITE;;LAVA FLOW, GRANULAR;;;CRETACEOUS;LOWER;;;;MINERAL / COMPONENT (INCL. GROUNDMASS);PIGEONITE;;PHENOCRYST;CORE;PRIMARY;;;;;;;;50.41;0.35;;;0.67;;;;;;;;;;;24.41;;4.81;16.57;1.06;;;;;;;;;;;0.08;;;;;;;;;;;;;;;;;;;;;;;;;;;;;;;;;;;;;;;;;;;;;;;;;;;;;;;;;;;;;;;;;;;;;;;;;;;;;;;;;;;;;;;;;;;;;;;;;;;;;;;;;;;;;;;;;;;;;;;;;;;;;;;;;;;;;;;;;;;;;;;;;;;;;;;;;;;;;;;;;;;;;;;;;;;;;;;;;;;;;;;;;;;;;;;;48.28;;;41.65;;;;10.07;;;;;;;;;;;;;;;;;;;;;;
2007;[16462] JANASI V. A. (2007);samp. OU-14;;PARANA / NORTHERN PARANA PROVINCE / SERRA GERAL FORMATION;PIRAJU-OURINHOS REGION, SAO PAULO;-23;-49;-23.3;-50;;;OUTCROP;;;SUBAERIAL;VOLCANIC ROCK;TRACHYDACITE;;LAVA FLOW, CHOCOLATE BROWN;;;CRETACEOUS;LOWER;;;;MINERAL / COMPONENT (INCL. GROUNDMASS);CLINOPYROXENE;;PHENOCRYST;RIM;PRIMARY;;;;;;;;51.06;0.69;;;1.26;;;;;;;;;;;15.22;;17.53;13.3;0;;;;;;;;;;;0.24;;;;;;;;;;;;;;;;;;;;;;;;;;;;;;;;;;;;;;;;;;;;;;;;;;;;;;;;;;;;;;;;;;;;;;;;;;;;;;;;;;;;;;;;;;;;;;;;;;;;;;;;;;;;;;;;;;;;;;;;;;;;;;;;;;;;;;;;;;;;;;;;;;;;;;;;;;;;;;;;;;;;;;;;;;;;;;;;;;;;;;;;;;;;;;;;38.62;;;24.79;;;;36.59;;;;;;;;;;;;;;;;;;;;;;
2007;[16462] JANASI V. A. (2007);samp. OU-14;;PARANA / NORTHERN PARANA PROVINCE / SERRA GERAL FORMATION;PIRAJU-OURINHOS REGION, SAO PAULO;-23;-49;-23.3;-50;;;OUTCROP;;;SUBAERIAL;VOLCANIC ROCK;TRACHYDACITE;;LAVA FLOW, CHOCOLATE BROWN;;;CRETACEOUS;LOWER;;;;MINERAL / COMPONENT (INCL. GROUNDMASS);CLINOPYROXENE;;PHENOCRYST;CORE;PRIMARY;;;;;;;;50.09;0.75;;;1.4;;;;;;;;;;;16.24;;17.49;12.64;0.54;;;;;;;;;;;0.25;;;;;;;;;;;;;;;;;;;;;;;;;;;;;;;;;;;;;;;;;;;;;;;;;;;;;;;;;;;;;;;;;;;;;;;;;;;;;;;;;;;;;;;;;;;;;;;;;;;;;;;;;;;;;;;;;;;;;;;;;;;;;;;;;;;;;;;;;;;;;;;;;;;;;;;;;;;;;;;;;;;;;;;;;;;;;;;;;;;;;;;;;;;;;;;;36.5;;;17.2;;;;36.3;;;;;;;;;;;;;;;;;;;;;;
2007;[16462] JANASI V. A. (2007);samp. OU-32;;PARANA / NORTHERN PARANA PROVINCE / SERRA GERAL FORMATION;PIRAJU-OURINHOS REGION, SAO PAULO;-23;-49;-23.3;-50;;;OUTCROP;;;SUBAERIAL;VOLCANIC ROCK;TRACHYDACITE;;LAVA FLOW, CHOCOLATE BROWN WITH VESICLES;;;CRETACEOUS;LOWER;;;;MINERAL / COMPONENT (INCL. GROUNDMASS);CLINOPYROXENE;;PHENOCRYST;RIM;PRIMARY;;;;;;;;50.34;0.68;;;1.14;;;;;;;;;;;15.5;;17.28;12.89;0.58;;;;;;;;;;;0.21;;;;;;;;;;;;;;;;;;;;;;;;;;;;;;;;;;;;;;;;;;;;;;;;;;;;;;;;;;;;;;;;;;;;;;;;;;;;;;;;;;;;;;;;;;;;;;;;;;;;;;;;;;;;;;;;;;;;;;;;;;;;;;;;;;;;;;;;;;;;;;;;;;;;;;;;;;;;;;;;;;;;;;;;;;;;;;;;;;;;;;;;;;;;;;;;37.54;;;26.29;;;;36.17;;;;;;;;;;;;;;;;;;;;;;
2007;[16462] JANASI V. A. (2007);samp. OU-32;;PARANA / NORTHERN PARANA PROVINCE / SERRA GERAL FORMATION;PIRAJU-OURINHOS REGION, SAO PAULO;-23;-49;-23.3;-50;;;OUTCROP;;;SUBAERIAL;VOLCANIC ROCK;TRACHYDACITE;;LAVA FLOW, CHOCOLATE BROWN WITH VESICLES;;;CRETACEOUS;LOWER;;;;MINERAL / COMPONENT (INCL. GROUNDMASS);CLINOPYROXENE;;PHENOCRYST;CORE;PRIMARY;;;;;;;;50.44;0.66;;;1.12;;;;;;;;;;;15.42;;17.63;12.76;0.63;;;;;;;;;;;0.26;;;;;;;;;;;;;;;;;;;;;;;;;;;;;;;;;;;;;;;;;;;;;;;;;;;;;;;;;;;;;;;;;;;;;;;;;;;;;;;;;;;;;;;;;;;;;;;;;;;;;;;;;;;;;;;;;;;;;;;;;;;;;;;;;;;;;;;;;;;;;;;;;;;;;;;;;;;;;;;;;;;;;;;;;;;;;;;;;;;;;;;;;;;;;;;;37.05;;;26.16;;;;36.79;;;;;;;;;;;;;;;;;;;;;;
2007;[16462] JANASI V. A. (2007);samp. OU-32;;PARANA / NORTHERN PARANA PROVINCE / SERRA GERAL FORMATION;PIRAJU-OURINHOS REGION, SAO PAULO;-23;-49;-23.3;-50;;;OUTCROP;;;SUBAERIAL;VOLCANIC ROCK;TRACHYDACITE;;LAVA FLOW, CHOCOLATE BROWN WITH VESICLES;;;CRETACEOUS;LOWER;;;;MINERAL / COMPONENT (INCL. GROUNDMASS);PIGEONITE;;MICROPHENOCRYST;CORE;PRIMARY;;;;;;;;50.51;0.42;;;0.66;;;;;;;;;;;25.86;;5.48;14.97;1.02;;;;;;;;;;;0.07;;;;;;;;;;;;;;;;;;;;;;;;;;;;;;;;;;;;;;;;;;;;;;;;;;;;;;;;;;;;;;;;;;;;;;;;;;;;;;;;;;;;;;;;;;;;;;;;;;;;;;;;;;;;;;;;;;;;;;;;;;;;;;;;;;;;;;;;;;;;;;;;;;;;;;;;;;;;;;;;;;;;;;;;;;;;;;;;;;;;;;;;;;;;;;;;44.04;;;44.38;;;;11.59;;;;;;;;;;;;;;;;;;;;;;
2007;[16462] JANASI V. A. (2007);samp. OU-32;;PARANA / NORTHERN PARANA PROVINCE / SERRA GERAL FORMATION;PIRAJU-OURINHOS REGION, SAO PAULO;-23;-49;-23.3;-50;;;OUTCROP;;;SUBAERIAL;VOLCANIC ROCK;TRACHYDACITE;;LAVA FLOW, CHOCOLATE BROWN WITH VESICLES;;;CRETACEOUS;LOWER;;;;MINERAL / COMPONENT (INCL. GROUNDMASS);CLINOPYROXENE;;PHENOCRYST;CORE;PRIMARY;;;;;;;;49.94;0.61;;;1.18;;;;;;;;;;;15.57;;17.47;12.85;0.6;;;;;;;;;;;0.23;;;;;;;;;;;;;;;;;;;;;;;;;;;;;;;;;;;;;;;;;;;;;;;;;;;;;;;;;;;;;;;;;;;;;;;;;;;;;;;;;;;;;;;;;;;;;;;;;;;;;;;;;;;;;;;;;;;;;;;;;;;;;;;;;;;;;;;;;;;;;;;;;;;;;;;;;;;;;;;;;;;;;;;;;;;;;;;;;;;;;;;;;;;;;;;;37.27;;;26.32;;;;36.41;;;;;;;;;;;;;;;;;;;;;;
2012;[16635] ERSOY Y. (2012);samp. 117;;ANATOLIA-IRAN BELT / TURKEY / WESTERN ANATOLIAN VOLCANIC BELT / KOZAK-YUNTDAGI VOLCANIC ROCKS;SOMA BASIN;39.19;27.61;39.19;27.61;;;OUTCROP;;;SUBAERIAL;VOLCANIC ROCK;TRACHYDACITE;;;;;MIOCENE;;;;;WHOLE ROCK;;;;;;;;;;;;;66.8;0.4;;;16.2;;;;;;;;;3.39;;;;3.07;0.82;0.05;;;;;;;3.93;NOT;;;3.82;0.16;;;;;;;;;;;;;;1.1;;;;;;;;;;;;;;;;;;;;;;;;;6;NOT;;;;;;;33;;;;35.5;2.8;;;;;;;;150.8;NOT;;;513.4;NOT;;;17.4;NOT;;;186.3;NOT;;;12.5;NOT;;;;;;;;;;;;;4.6;1331;NOT;;;45.7;NOT;;;88.2;NOT;;;8.81;30.2;NOT;;;4.95;NOT;;;0.88;3.9;0.56;2.94;0.58;1.68;0.27;1.75;0.27;5.1;1.1;;;;;;;;5.9;NOT;;;;;31.6;NOT;;;6;;;;;;;;;;;;;;;;;;;;;;;;;;;;;;;;;;;;;;;;;;;;;;;;;;;;;;;;;;;;;;;;;;;;;;;;;;;;;;;;
2012;[16635] ERSOY Y. (2012);samp. 118;;ANATOLIA-IRAN BELT / TURKEY / WESTERN ANATOLIAN VOLCANIC BELT / KOZAK-YUNTDAGI VOLCANIC ROCKS;SOMA BASIN;39.19;27.61;39.19;27.61;;;OUTCROP;;;SUBAERIAL;VOLCANIC ROCK;TRACHYDACITE;;;;;MIOCENE;;;;;WHOLE ROCK;;;;;;;;;;;;;64.34;0.4;;;16.06;;;;;;;;;3.53;;;;3.96;1.59;0.1;;;;;;;3.82;NOT;;;3.6;0.16;;;;;;;;;;;;;;2.1;;;;;;;;;;;;;;;;;;;;;;;;;7;NOT;;;;;;;56;;;;28;3.7;;;;;;;;151.4;NOT;;;508.9;NOT;;;20.9;NOT;;;180.1;NOT;;;12.8;NOT;;;;;;;;;;;;;4.9;1361;NOT;;;48.8;NOT;;;94.7;NOT;;;9.67;33.1;NOT;;;5.22;NOT;;;0.94;4.07;0.62;3.33;0.66;1.86;0.29;1.92;0.31;5.2;1.1;;;;;;;;10.7;NOT;;;;;35.1;NOT;;;6.5;;;;;;;;;;;;;;;;;;;;;;;;;;;;;;;;;;;;;;;;;;;;;;;;;;;;;;;;;;;;;;;;;;;;;;;;;;;;;;;;
2012;[16635] ERSOY Y. (2012);samp. 127;;ANATOLIA-IRAN BELT / TURKEY / WESTERN ANATOLIAN VOLCANIC BELT / KOZAK-YUNTDAGI VOLCANIC ROCKS;SOMA BASIN;39.19;27.61;39.19;27.61;;;OUTCROP;;;SUBAERIAL;VOLCANIC ROCK;TRACHYDACITE;;;;;MIOCENE;;;;;WHOLE ROCK;;;;;;;;;;;;;62.49;0.61;;;16.7;;;;;;;;;4.78;;;;4.07;1.51;0.06;;;;;;;3.36;NOT;;;3.71;0.33;;;;;;;;;;;;;;2;;;;;;;;;;;;;;;;;;;;;;;;;13;NOT;;;;;;;67;;;;29.7;12.2;;;;;;;;123.4;NOT;;;588;NOT;;;14.4;NOT;;;212;NOT;;;12.7;NOT;;;;;;;;;;;;;3.5;1407;NOT;;;43.6;NOT;;;91.2;NOT;;;9.06;31.3;NOT;;;4.91;NOT;;;1.01;3.77;0.52;2.61;0.5;1.4;0.22;1.43;0.22;6.2;0.8;;;;;;;;4.7;NOT;;;;;23;NOT;;;4;;;;;;;;;;;;;;;;;;;;;;;;;;;;;;;;;;;;;;;;;;;;;;;;;;;;;;;;;;;;;;;;;;;;;;;;;;;;;;;;