Year;CITATION;SAMPLE NAME;UNIQUE_ID;LOCATION;LOCATION COMMENT;LATITUDE (MIN.);LONGITUDE (MIN.);LATITUDE (MAX.);LONGITUDE (MAX.);ELEVATION (MIN.);ELEVATION (MAX.);SAMPLING TECHNIQUE;DRILLING DEPTH (MIN.);DRILLING DEPTH (MAX.);LAND/SEA (SAMPLING);ROCK TYPE;ROCK NAME;ROCK TEXTURE;SAMPLE COMMENT;AGE (MIN.);AGE (MAX.);GEOLOGICAL AGE;GEOLOGICAL AGE PREFIX;ERUPTION YEAR;ALTERATION;ALTERATION TYPE;TYPE OF MATERIAL;MINERAL / COMPONENT;SPOT (MINERAL);CRYSTAL;RIM / CORE (MINERAL GRAINS);PRIMARY/SECONDARY;INCLUSION TYPE;SPOT (INCLUSION);MINERAL (INCLUSION);RIM / CORE (INCLUSION);HOSTMINERAL (INCLUSION);HEATING;HEATING TEMPERATURE (?C);SIO2(WT%);TIO2(WT%);ZRO2(WT%);B2O3(WT%);AL2O3(WT%);CR2O3(WT%);LA2O3(WT%);CE2O3(WT%);Y2O3(WT%);V2O3(WT%);NB2O3(WT%);TA2O5(WT%);WO3(WT%);FE2O3T(WT%);FE2O3(WT%);FEOT(WT%);FEO(WT%);CAO(WT%);MGO(WT%);MNO(WT%);BAO(WT%);SRO(WT%);NIO(WT%);ZNO(WT%);CS2O(WT%);RB2O(WT%);K2O(WT%);;;;NA2O(WT%);P2O5(WT%);H2O(WT%);;;;H2OP(WT%);H2OM(WT%);CO2(WT%);C(WT%);F(WT%);CL(WT%);SO2(WT%);SO3(WT%);S(WT%);LOI(WT%);AL(WT%);TI(WT%);FE(WT%);MG(WT%);CA(WT%);K(WT%);NA(WT%);LI(PPM);BE(PPM);B(PPM);C(PPM);F(PPM);NA(PPM);MG(PPM);AL(PPM);P(PPM);S(PPM);CL(PPM);AR40(AT/G);AR40(CCMSTP/G);AR40(MOL/G);AR40(PPB);K(PPM);CA(PPM);SC(PPM);;;;TI(PPM);;;;V(PPM);CR(PPM);MN(PPM);FE(PPM);CO(PPM);NI(PPM);CU(PPM);ZN(PPM);GA(PPM);GE(PPM);AS(PPM);SE(PPM);BR(PPM);RB(PPM): altern. values or methods;;;;SR(PPM): altern. values or methods;;;;Y(PPM): altern. values or methods;;;;ZR(PPM): altern. values or methods;;;;NB(PPM): altern. values or methods;;;;MO(PPM): altern. values or methods;;;;AG(PPM);CD(PPM);IN(PPM);SN(PPM);SB(PPM);TE(PPM);CS(PPM);BA(PPM): altern. values or methods;;;;LA(PPM): altern. values or methods;;;;CE(PPM): altern. values or methods;;;;PR(PPM);ND(PPM): altern. values or methods;;;;SM(PPM): altern. values or methods;;;;EU(PPM);GD(PPM);TB(PPM);DY(PPM);HO(PPM);ER(PPM);TM(PPM);YB(PPM);LU(PPM);HF(PPM);TA(PPM);W(PPM);RE(PPM);AU(PPM);AU(PPB);HG(PPM);HG(PPB);TL(PPM);PB(PPM): altern. values or methods;;;;PB206(PPM);BI(PPM);TH(PPM): altern. values or methods;;;;U(PPM);ND143_ND144;ND143_ND144_INI;EPSILON_ND;EPSILON_ND_INI;SM147_ND144;SR87_SR86;SR87_SR86_INI;EPSILON_SR;EPSILON_SR_INI;RB87_SR86;PB206_PB204;PB206_PB204_INI;PB206_PB207;PB206_PB208;PB207_PB204;PB207_PB204_INI;PB207_PB206;PB208_PB204;PB208_PB204_INI;PB208_PB206;HF176_HF177;HF176_HF177_INI;EPSILON_HF_INI;LU176_HF177;YB176_HF177;AR36_AR39;AR36_AR40;AR37_AR39;AR38_AR39;AR39_AR40;AR40_AR36;AR40_AR39;PB206_U238;PB207_U235;PB208_TH232;TH232_PB204;TH232_U238;U235_PB204;U238_PB204;U238_PB206;D7LI(VS LSVEC);D18O(PER MIL);D18O(VS SMOW);D18O(VS VSMOW);D56FE(VS IRMM-014);D57FE(VS IRMM-014);DD(VS SMOW);ALBITE(MOL%);ANORTHITE(MOL%);CA OLIVINE(MOL%);ENSTATITE(MOL%);FAYALITE(MOL%);FORSTERITE(MOL%);FERROSILITE(MOL%);ORTHOCLASE(MOL%);TEPHROITE(MOL%);ULVOSPINEL(MOL%);WOLLASTONITE(MOL%);AGE(KA): altern. values or methods;;;;AGE(MA): altern. values or methods;;;;;;;;AGE_PB207_PB206(MA);AGE_PB207_U235(MA);AGE_PB206_U238(MA): altern. values or methods;;;;;;AGE_PB208_TH232(MA);
2014;[18350] CHEN LONG(2014)  [GeoReM [8456] ];samp. 09LZ67;;CENTRAL ASIAN FOLDBELT - MESOZOIC / CHINA - MESOZOIC / ANHUI PROVINCE / SHUANGMIAO FORMATION;LUZONG AREA;30.8;117.3;31.1;117.6;;;OUTCROP;;;SUBAERIAL;VOLCANIC ROCK;TRACHYDACITE;PORPHYRITIC;;;;CRETACEOUS;LOWER;;;;MINERAL / COMPONENT (INCL. GROUNDMASS);ZIRCON;;;;PRIMARY;;;;;;;;;;;;;;;;;;;;;;;;;;;;;;;;;;;;;;;;;;;;;;;;;;;;;;;;;;;;;;;;;;;;;;;;;;;;;;;;;;;;;;;;;;;;;;;;;;;;;;;;;;;;;;;;;;;;;;;;;;;;;;;;;;;;;;;;;;;;;;;;;;;;;;;;;;;;;;;;;;;;;;;;;;;;;;;;;;;;;;;;;;;;;;;;;;;;;;;;;;;;;;;;;;;;;;;;;;;;;;;6.2;;;;;;;;;;;;;;;;;;;;;;;;;;;;;;;;;;;;
2014;[18350] CHEN LONG(2014)  [GeoReM [8456] ];samp. 09LZ67;;CENTRAL ASIAN FOLDBELT - MESOZOIC / CHINA - MESOZOIC / ANHUI PROVINCE / SHUANGMIAO FORMATION;LUZONG AREA;30.8;117.3;31.1;117.6;;;OUTCROP;;;SUBAERIAL;VOLCANIC ROCK;TRACHYDACITE;PORPHYRITIC;;;;CRETACEOUS;LOWER;;;;MINERAL / COMPONENT (INCL. GROUNDMASS);ZIRCON;;;;PRIMARY;;;;;;;;;;;;;;;;;;;;;;;;;;;;;;;;;;;;;;;;;;;;;;;;;;;;;;;;;;;;;;;;;;;;;;;;;;;;;;;;;;;;;;;;;;;;;;;;;;;;;;;;;;;;;;;;;;;;;;;;;;;;;;;;;;;;;;;;;;;;;;;;;;;;;;;;;;;;;;;;;;;;;;;;;;;;;;;;;;;;;;;;;;;;;;;;;;;;;;;;;;;;;;;;;;;;;;;;;;;;;;;7.6;;;;;;;;;;;;;;;;;;;;;;;;;;;;;;;;;;;;
2014;[18350] CHEN LONG(2014)  [GeoReM [8456] ];samp. 09LZ67;;CENTRAL ASIAN FOLDBELT - MESOZOIC / CHINA - MESOZOIC / ANHUI PROVINCE / SHUANGMIAO FORMATION;LUZONG AREA;30.8;117.3;31.1;117.6;;;OUTCROP;;;SUBAERIAL;VOLCANIC ROCK;TRACHYDACITE;PORPHYRITIC;;;;CRETACEOUS;LOWER;;;;MINERAL / COMPONENT (INCL. GROUNDMASS);ZIRCON;;;;PRIMARY;;;;;;;;;;;;;;;;;;;;;;;;;;;;;;;;;;;;;;;;;;;;;;;;;;;;;;;;;;;;;;;;;;;;;;;;;;;;;;;;;;;;;;;;;;;;;;;;;;;;;;;;;;;;;;;;;;;;;;;;;;;;;;;;;;;;;;;;;;;;;;;;;;;;;;;;;;;;;;;;;;;;;;;;;;;;;;;;;;;;;;;;;;;;;;;;;;;;;;;;;;;;;;;;;;;;;;;;;;;;;;;7.1;;;;;;;;;;;;;;;;;;;;;;;;;;;;;;;;;;;;
2014;[18350] CHEN LONG(2014)  [GeoReM [8456] ];samp. 09LZ67;;CENTRAL ASIAN FOLDBELT - MESOZOIC / CHINA - MESOZOIC / ANHUI PROVINCE / SHUANGMIAO FORMATION;LUZONG AREA;30.8;117.3;31.1;117.6;;;OUTCROP;;;SUBAERIAL;VOLCANIC ROCK;TRACHYDACITE;PORPHYRITIC;;;;CRETACEOUS;LOWER;;;;MINERAL / COMPONENT (INCL. GROUNDMASS);ZIRCON;;;;PRIMARY;;;;;;;;;;;;;;;;;;;;;;;;;;;;;;;;;;;;;;;;;;;;;;;;;;;;;;;;;;;;;;;;;;;;;;;;;;;;;;;;;;;;;;;;;;;;;;;;;;;;;;;;;;;;;;;;;;;;;;;;;;;;;;;;;;;;;;;;;;;;;;;;;;;;;;;;;;;;;;;;;;;;;;;;;;;;;;;;;;;;;;;;;;;;;;;;;;;;;;;;;;;;;;;;;;;;;;;;;;;;;;;6;;;;;;;;;;;;;;;;;;;;;;;;;;;;;;;;;;;;
2014;[18350] CHEN LONG(2014)  [GeoReM [8456] ];samp. 09LZ67;;CENTRAL ASIAN FOLDBELT - MESOZOIC / CHINA - MESOZOIC / ANHUI PROVINCE / SHUANGMIAO FORMATION;LUZONG AREA;30.8;117.3;31.1;117.6;;;OUTCROP;;;SUBAERIAL;VOLCANIC ROCK;TRACHYDACITE;PORPHYRITIC;;;;CRETACEOUS;LOWER;;;;MINERAL / COMPONENT (INCL. GROUNDMASS);ZIRCON;;;;PRIMARY;;;;;;;;;;;;;;;;;;;;;;;;;;;;;;;;;;;;;;;;;;;;;;;;;;;;;;;;;;;;;;;;;;;;;;;;;;;;;;;;;;;;;;;;;;;;;;;;;;;;;;;;;;;;;;;;;;;;;;;;;;;;;;;;;;;;;;;;;;;;;;;;;;;;;;;;;;;;;;;;;;;;;;;;;;;;;;;;;;;;;;;;;;;;;;;;;;;;;;;;;;;;;;;;;;;;;;;;;;;;;;;6.1;;;;;;;;;;;;;;;;;;;;;;;;;;;;;;;;;;;;
2014;[18350] CHEN LONG(2014)  [GeoReM [8456] ];samp. 09LZ67;;CENTRAL ASIAN FOLDBELT - MESOZOIC / CHINA - MESOZOIC / ANHUI PROVINCE / SHUANGMIAO FORMATION;LUZONG AREA;30.8;117.3;31.1;117.6;;;OUTCROP;;;SUBAERIAL;VOLCANIC ROCK;TRACHYDACITE;PORPHYRITIC;;;;CRETACEOUS;LOWER;;;;MINERAL / COMPONENT (INCL. GROUNDMASS);ZIRCON;;;;PRIMARY;;;;;;;;;;;;;;;;;;;;;;;;;;;;;;;;;;;;;;;;;;;;;;;;;;;;;;;;;;;;;;;;;;;;;;;;;;;;;;;;;;;;;;;;;;;;;;;;;;;;;;;;;;;;;;;;;;;;;;;;;;;;;;;;;;;;;;;;;;;;;;;;;;;;;;;;;;;;;;;;;;;;;;;;;;;;;;;;;;;;;;;;;;;;;;;;;;;;;;;;;;;;;;;;;;;;;;;;;;;;;;;6.3;;;;;;;;;;;;;;;;;;;;;;;;;;;;;;;;;;;;
2014;[18350] CHEN LONG(2014)  [GeoReM [8456] ];samp. 09LZ67;;CENTRAL ASIAN FOLDBELT - MESOZOIC / CHINA - MESOZOIC / ANHUI PROVINCE / SHUANGMIAO FORMATION;LUZONG AREA;30.8;117.3;31.1;117.6;;;OUTCROP;;;SUBAERIAL;VOLCANIC ROCK;TRACHYDACITE;PORPHYRITIC;;;;CRETACEOUS;LOWER;;;;MINERAL / COMPONENT (INCL. GROUNDMASS);ZIRCON;;;;PRIMARY;;;;;;;;;;;;;;;;;;;;;;;;;;;;;;;;;;;;;;;;;;;;;;;;;;;;;;;;;;;;;;;;;;;;;;;;;;;;;;;;;;;;;;;;;;;;;;;;;;;;;;;;;;;;;;;;;;;;;;;;;;;;;;;;;;;;;;;;;;;;;;;;;;;;;;;;;;;;;;;;;;;;;;;;;;;;;;;;;;;;;;;;;;;;;;;;;;;;;;;;;;;;;;;;;;;;;;;;;;;;;;;6.6;;;;;;;;;;;;;;;;;;;;;;;;;;;;;;;;;;;;
2014;[18350] CHEN LONG(2014)  [GeoReM [8456] ];samp. 09LZ67;;CENTRAL ASIAN FOLDBELT - MESOZOIC / CHINA - MESOZOIC / ANHUI PROVINCE / SHUANGMIAO FORMATION;LUZONG AREA;30.8;117.3;31.1;117.6;;;OUTCROP;;;SUBAERIAL;VOLCANIC ROCK;TRACHYDACITE;PORPHYRITIC;;;;CRETACEOUS;LOWER;;;;MINERAL / COMPONENT (INCL. GROUNDMASS);ZIRCON;;;;PRIMARY;;;;;;;;;;;;;;;;;;;;;;;;;;;;;;;;;;;;;;;;;;;;;;;;;;;;;;;;;;;;;;;;;;;;;;;;;;;;;;;;;;;;;;;;;;;;;;;;;;;;;;;;;;;;;;;;;;;;;;;;;;;;;;;;;;;;;;;;;;;;;;;;;;;;;;;;;;;;;;;;;;;;;;;;;;;;;;;;;;;;;;;;;;;;;;;;;;;;;;;;;;;;;;;;;;;;;;;;;;;;;;;6.4;;;;;;;;;;;;;;;;;;;;;;;;;;;;;;;;;;;;
2014;[18350] CHEN LONG(2014)  [GeoReM [8456] ];samp. 09LZ67;;CENTRAL ASIAN FOLDBELT - MESOZOIC / CHINA - MESOZOIC / ANHUI PROVINCE / SHUANGMIAO FORMATION;LUZONG AREA;30.8;117.3;31.1;117.6;;;OUTCROP;;;SUBAERIAL;VOLCANIC ROCK;TRACHYDACITE;PORPHYRITIC;;;;CRETACEOUS;LOWER;;;;MINERAL / COMPONENT (INCL. GROUNDMASS);ZIRCON;;;;PRIMARY;;;;;;;;;;;;;;;;;;;;;;;;;;;;;;;;;;;;;;;;;;;;;;;;;;;;;;;;;;;;;;;;;;;;;;;;;;;;;;;;;;;;;;;;;;;;;;;;;;;;;;;;;;;;;;;;;;;;;;;;;;;;;;;;;;;;;;;;;;;;;;;;;;;;;;;;;;;;;;;;;;;;;;;;;;;;;;;;;;;;;;;;;;;;;;;;;;;;;;;;;;;;;;;;;;;;;;;;;;;;;;;5.9;;;;;;;;;;;;;;;;;;;;;;;;;;;;;;;;;;;;
2014;[18350] CHEN LONG(2014)  [GeoReM [8456] ];samp. 09LZ80;;CENTRAL ASIAN FOLDBELT - MESOZOIC / CHINA - MESOZOIC / ANHUI PROVINCE / SHUANGMIAO FORMATION;LUZONG AREA;30.8;117.3;31.1;117.6;;;OUTCROP;;;SUBAERIAL;VOLCANIC ROCK;TRACHYDACITE;PORPHYRITIC;;;;CRETACEOUS;LOWER;;;;MINERAL / COMPONENT (INCL. GROUNDMASS);ZIRCON;;;;PRIMARY;;;;;;;;;;;;;;;;;;;;;;;;;;;;;;;;;;;;;;;;;;;;;;;;;;;;;;;;;;;;;;;;;;;;;;;;;;;;;;;;;;;;;;;;;;;;;;;;;;;;;;;;;;;;;;;;;;;;;;;;;;;;;;;;;;;;;;;;;;;;;;;;;;;;;;;;;;;;;;;;;;;;;;;;;;;;;;;;;;;;;;;;;;;;;;;;;;;;;;;;;;;;;;;;;;;;;;;;;;;;;;;6.3;;;;;;;;;;;;;;;;;;;;;;;;;;;;;;;;;;;;
2014;[18350] CHEN LONG(2014)  [GeoReM [8456] ];samp. 09LZ80;;CENTRAL ASIAN FOLDBELT - MESOZOIC / CHINA - MESOZOIC / ANHUI PROVINCE / SHUANGMIAO FORMATION;LUZONG AREA;30.8;117.3;31.1;117.6;;;OUTCROP;;;SUBAERIAL;VOLCANIC ROCK;TRACHYDACITE;PORPHYRITIC;;;;CRETACEOUS;LOWER;;;;MINERAL / COMPONENT (INCL. GROUNDMASS);ZIRCON;;;;PRIMARY;;;;;;;;;;;;;;;;;;;;;;;;;;;;;;;;;;;;;;;;;;;;;;;;;;;;;;;;;;;;;;;;;;;;;;;;;;;;;;;;;;;;;;;;;;;;;;;;;;;;;;;;;;;;;;;;;;;;;;;;;;;;;;;;;;;;;;;;;;;;;;;;;;;;;;;;;;;;;;;;;;;;;;;;;;;;;;;;;;;;;;;;;;;;;;;;;;;;;;;;;;;;;;;;;;;;;;;;;;;;;;;6.2;;;;;;;;;;;;;;;;;;;;;;;;;;;;;;;;;;;;
2014;[18350] CHEN LONG(2014)  [GeoReM [8456] ];samp. 09LZ80;;CENTRAL ASIAN FOLDBELT - MESOZOIC / CHINA - MESOZOIC / ANHUI PROVINCE / SHUANGMIAO FORMATION;LUZONG AREA;30.8;117.3;31.1;117.6;;;OUTCROP;;;SUBAERIAL;VOLCANIC ROCK;TRACHYDACITE;PORPHYRITIC;;;;CRETACEOUS;LOWER;;;;MINERAL / COMPONENT (INCL. GROUNDMASS);ZIRCON;;;;PRIMARY;;;;;;;;;;;;;;;;;;;;;;;;;;;;;;;;;;;;;;;;;;;;;;;;;;;;;;;;;;;;;;;;;;;;;;;;;;;;;;;;;;;;;;;;;;;;;;;;;;;;;;;;;;;;;;;;;;;;;;;;;;;;;;;;;;;;;;;;;;;;;;;;;;;;;;;;;;;;;;;;;;;;;;;;;;;;;;;;;;;;;;;;;;;;;;;;;;;;;;;;;;;;;;;;;;;;;;;;;;;;;;;6.6;;;;;;;;;;;;;;;;;;;;;;;;;;;;;;;;;;;;
2014;[18350] CHEN LONG(2014)  [GeoReM [8456] ];samp. 09LZ80;;CENTRAL ASIAN FOLDBELT - MESOZOIC / CHINA - MESOZOIC / ANHUI PROVINCE / SHUANGMIAO FORMATION;LUZONG AREA;30.8;117.3;31.1;117.6;;;OUTCROP;;;SUBAERIAL;VOLCANIC ROCK;TRACHYDACITE;PORPHYRITIC;;;;CRETACEOUS;LOWER;;;;MINERAL / COMPONENT (INCL. GROUNDMASS);ZIRCON;;;;PRIMARY;;;;;;;;;;;;;;;;;;;;;;;;;;;;;;;;;;;;;;;;;;;;;;;;;;;;;;;;;;;;;;;;;;;;;;;;;;;;;;;;;;;;;;;;;;;;;;;;;;;;;;;;;;;;;;;;;;;;;;;;;;;;;;;;;;;;;;;;;;;;;;;;;;;;;;;;;;;;;;;;;;;;;;;;;;;;;;;;;;;;;;;;;;;;;;;;;;;;;;;;;;;;;;;;;;;;;;;;;;;;;;;6.1;;;;;;;;;;;;;;;;;;;;;;;;;;;;;;;;;;;;
2014;[18350] CHEN LONG(2014)  [GeoReM [8456] ];samp. 09LZ80;;CENTRAL ASIAN FOLDBELT - MESOZOIC / CHINA - MESOZOIC / ANHUI PROVINCE / SHUANGMIAO FORMATION;LUZONG AREA;30.8;117.3;31.1;117.6;;;OUTCROP;;;SUBAERIAL;VOLCANIC ROCK;TRACHYDACITE;PORPHYRITIC;;;;CRETACEOUS;LOWER;;;;MINERAL / COMPONENT (INCL. GROUNDMASS);ZIRCON;;;;PRIMARY;;;;;;;;;;;;;;;;;;;;;;;;;;;;;;;;;;;;;;;;;;;;;;;;;;;;;;;;;;;;;;;;;;;;;;;;;;;;;;;;;;;;;;;;;;;;;;;;;;;;;;;;;;;;;;;;;;;;;;;;;;;;;;;;;;;;;;;;;;;;;;;;;;;;;;;;;;;;;;;;;;;;;;;;;;;;;;;;;;;;;;;;;;;;;;;;;;;;;;;;;;;;;;;;;;;;;;;;;;;;;;;6.5;;;;;;;;;;;;;;;;;;;;;;;;;;;;;;;;;;;;
2014;[18350] CHEN LONG(2014)  [GeoReM [8456] ];samp. 09LZ80;;CENTRAL ASIAN FOLDBELT - MESOZOIC / CHINA - MESOZOIC / ANHUI PROVINCE / SHUANGMIAO FORMATION;LUZONG AREA;30.8;117.3;31.1;117.6;;;OUTCROP;;;SUBAERIAL;VOLCANIC ROCK;TRACHYDACITE;PORPHYRITIC;;;;CRETACEOUS;LOWER;;;;MINERAL / COMPONENT (INCL. GROUNDMASS);ZIRCON;;;;PRIMARY;;;;;;;;;;;;;;;;;;;;;;;;;;;;;;;;;;;;;;;;;;;;;;;;;;;;;;;;;;;;;;;;;;;;;;;;;;;;;;;;;;;;;;;;;;;;;;;;;;;;;;;;;;;;;;;;;;;;;;;;;;;;;;;;;;;;;;;;;;;;;;;;;;;;;;;;;;;;;;;;;;;;;;;;;;;;;;;;;;;;;;;;;;;;;;;;;;;;;;;;;;;;;;;;;;;;;;;;;;;;;;;6.7;;;;;;;;;;;;;;;;;;;;;;;;;;;;;;;;;;;;
2014;[18350] CHEN LONG(2014)  [GeoReM [8456] ];samp. 09LZ80;;CENTRAL ASIAN FOLDBELT - MESOZOIC / CHINA - MESOZOIC / ANHUI PROVINCE / SHUANGMIAO FORMATION;LUZONG AREA;30.8;117.3;31.1;117.6;;;OUTCROP;;;SUBAERIAL;VOLCANIC ROCK;TRACHYDACITE;PORPHYRITIC;;;;CRETACEOUS;LOWER;;;;MINERAL / COMPONENT (INCL. GROUNDMASS);ZIRCON;;;;PRIMARY;;;;;;;;;;;;;;;;;;;;;;;;;;;;;;;;;;;;;;;;;;;;;;;;;;;;;;;;;;;;;;;;;;;;;;;;;;;;;;;;;;;;;;;;;;;;;;;;;;;;;;;;;;;;;;;;;;;;;;;;;;;;;;;;;;;;;;;;;;;;;;;;;;;;;;;;;;;;;;;;;;;;;;;;;;;;;;;;;;;;;;;;;;;;;;;;;;;;;;;;;;;;;;;;;;;;;;;;;;;;;;;6.4;;;;;;;;;;;;;;;;;;;;;;;;;;;;;;;;;;;;
2014;[18350] CHEN LONG(2014)  [GeoReM [8456] ];samp. 09LZ80;;CENTRAL ASIAN FOLDBELT - MESOZOIC / CHINA - MESOZOIC / ANHUI PROVINCE / SHUANGMIAO FORMATION;LUZONG AREA;30.8;117.3;31.1;117.6;;;OUTCROP;;;SUBAERIAL;VOLCANIC ROCK;TRACHYDACITE;PORPHYRITIC;;;;CRETACEOUS;LOWER;;;;MINERAL / COMPONENT (INCL. GROUNDMASS);ZIRCON;;;;PRIMARY;;;;;;;;;;;;;;;;;;;;;;;;;;;;;;;;;;;;;;;;;;;;;;;;;;;;;;;;;;;;;;;;;;;;;;;;;;;;;;;;;;;;;;;;;;;;;;;;;;;;;;;;;;;;;;;;;;;;;;;;;;;;;;;;;;;;;;;;;;;;;;;;;;;;;;;;;;;;;;;;;;;;;;;;;;;;;;;;;;;;;;;;;;;;;;;;;;;;;;;;;;;;;;;;;;;;;;;;;;;;;;;6.9;;;;;;;;;;;;;;;;;;;;;;;;;;;;;;;;;;;;
2014;[18350] CHEN LONG(2014)  [GeoReM [8456] ];samp. 09LZ80;;CENTRAL ASIAN FOLDBELT - MESOZOIC / CHINA - MESOZOIC / ANHUI PROVINCE / SHUANGMIAO FORMATION;LUZONG AREA;30.8;117.3;31.1;117.6;;;OUTCROP;;;SUBAERIAL;VOLCANIC ROCK;TRACHYDACITE;PORPHYRITIC;;;;CRETACEOUS;LOWER;;;;MINERAL / COMPONENT (INCL. GROUNDMASS);ZIRCON;;;;PRIMARY;;;;;;;;;;;;;;;;;;;;;;;;;;;;;;;;;;;;;;;;;;;;;;;;;;;;;;;;;;;;;;;;;;;;;;;;;;;;;;;;;;;;;;;;;;;;;;;;;;;;;;;;;;;;;;;;;;;;;;;;;;;;;;;;;;;;;;;;;;;;;;;;;;;;;;;;;;;;;;;;;;;;;;;;;;;;;;;;;;;;;;;;;;;;;;;;;;;;;;;;;;;;;;;;;;;;;;;;;;;;;;;6.8;;;;;;;;;;;;;;;;;;;;;;;;;;;;;;;;;;;;
2014;[18369] LIU DONGDONG(2014)  [GeoReM [8469] ];samp. NJ11-02;;TARIM LARGE IGNEOUS PROVINCE / XINJIANG PROVINCE / XIAOTIKANLIKE FORMATION;WENSU-KUQA RIVER AREA;42.1;81.5;42.3;82.25;;;OUTCROP;;;SUBAERIAL;VOLCANIC ROCK;TRACHYDACITE;;;;;PERMIAN;;;;;WHOLE ROCK;;;;;;;;;;;;;66.78;0.74;;;12.63;;;;;;;;;5.47;;;;1.73;0.13;0.106;;;;;;;5.41;XRF;;;3.59;0.017;;;;;;;;;;;;;;3.22;;;;;;;;25.4;;;;;;;;;;;;;;;;;;;;;;;;;69.5;7.74;;;;8.51;;;25.5;;;;;133;ICPMS;;;125;ICPMS;;;60.5;ICPMS;;;394;ICPMS;;;45.6;ICPMS;;;;;;;;;;;;;;1068;ICPMS;;;87.3;ICPMS;;;163;ICPMS;;;18.6;73.4;ICPMS;;;14.3;ICPMS;;;3.01;12.9;2.16;12.2;2.27;6.81;0.875;6.48;0.832;10.8;2.8;;;;;;;;28.2;ICPMS;;;;;17.4;ICPMS;;;3.27;0.512143;;;;0.1087;0.721452;;;;2.9267;;;;;;;;;;;;;;;;;;;;;;;;;;;;;;;;;;;;;;;;;;;;;;;;;;;;;;;;;;;;;;;;;;;;;;
2014;[18369] LIU DONGDONG(2014)  [GeoReM [8469] ];samp. NJ11-03;;TARIM LARGE IGNEOUS PROVINCE / XINJIANG PROVINCE / XIAOTIKANLIKE FORMATION;WENSU-KUQA RIVER AREA;42.1;81.5;42.3;82.25;;;OUTCROP;;;SUBAERIAL;VOLCANIC ROCK;TRACHYDACITE;;;;;PERMIAN;;;;;WHOLE ROCK;;;;;;;;;;;;;63.42;0.754;;;13.03;;;;;;;;;11.95;;;;0.37;0.04;0.134;;;;;;;5.78;XRF;;;1.74;0.011;;;;;;;;;;;;;;2.54;;;;;;;;17.2;;;;;;;;;;;;;;;;;;;;;;;;;19.6;2.08;;;;3.37;;;26.2;;;;;197;ICPMS;;;61.2;ICPMS;;;80.8;ICPMS;;;903;ICPMS;;;48.5;ICPMS;;;;;;;;;;;;;;1394;ICPMS;;;78.4;ICPMS;;;159;ICPMS;;;17.5;73.4;ICPMS;;;14.2;ICPMS;;;3.84;16.3;2.83;15.7;2.98;8.35;1.34;8.52;1.24;19.7;3.1;;;;;;;;35.4;ICPMS;;;;;17.4;ICPMS;;;3.42;;;;;;;;;;;;;;;;;;;;;;;;;;;;;;;;;;;;;;;;;;;;;;;;;;;;;;;;;;;;;;;;;;;;;;;;;;;;;;;;
2014;[18490] HANSKI E. J.(2014)  [GeoReM [8492] ];samp. 6A-136.50;;BALTIC SHIELD / KOLA-LAPLAND PROVINCE / PECHENGA-PASVIK GREENSTONE BELT / KUETSJÄRVI FORMATION;;68;39.5;68;39.5;;;DRILL HOLE ;;;SUBAERIAL;VOLCANIC ROCK;TRACHYDACITE;;;;;PROTEROZOIC;PALEO;;;;WHOLE ROCK;;;;;;;;;;;;;;;;;;;;;;;;;;;;;;;;;;;;;;;;;;;;;;;;;;;;;;;;;;;;;;;;;;;;;;;;;;;;;;;;;;;;;;;;;;;;;;;;;;;;;;;;;;;;;;;;;;;;;;;;;;;;;;;;;;;;;;;;;;;;;;;;;;;;633.52;TIMS_ID;;;41.445;TIMS_ID;;;;;;;;;;;;;;;;;;;;;;;;;;;;;;;;0.510361;;;;0.0395;;;;;;;;;;;;;;;;;;;;;;;;;;;;;;;;;;;;;;;;;;;;;;;;;;;;;;;;;;;;;;;;;;;;;;;;;;;
2014;[18511] EL AZZOUZI M. (2014);samp. CG 6 (79-227);280159;BETIC-RIF OROGENIC BELT (GIBRALTAR ARC) / BETIC CORDILLERA / NEOGENE ALBORAN VOLCANIC PROVINCE;TORRECILLA, CABO DE GATA;37.6;-2.5;37.6;-2.5;;;OUTCROP;;;SUBAERIAL;VOLCANIC ROCK;TRACHYDACITE;;;;;MIOCENE;;;;;WHOLE ROCK;;;;;;;;;;;;;62.3;0.45;;;15;;;;;;;;;5;;;;0.32;1.22;0.46;;;;;;;9.44;NOT;;;0.16;0.11;;;;;;;;;;;;;;3.73;;;;;;;;;;;;;;;;;;;;;;;;;21.1;NOT;;;;;;;134;37;;;15;10.1;;;;;;;;727;NOT;;;42;NOT;;;16.1;NOT;;;61;NOT;;;4;NOT;;;;;;;;;;;;;;1759;NOT;;;19.9;NOT;;;44;NOT;;;;17.3;NOT;;;3.3;NOT;;;0.9;3.4;;2.7;;1.7;;1.6;;;;;;;;;;;;;;;;;8.5;NOT;;;;;;;;;;;;;;;;;;;;;;;;;;;;;;;;;;;;;;;;;;;;;;;;;;;;;;;;;;;;;;;;;;;;;;;;;;;;;;;;;;;
2014;[18586] BACHMANN O. (2014);samp. CRT08-7;;NORTH AMERICAN CORDILLERA - CENOZOIC/QUATERNARY / CORDILLERA UNITED STATES / COLORADO / SAN JUAN VOLCANIC FIELD / CARPENTER RIDGE TUFF;BACHELOR CALDERA, NORTH OF BEAVER CREEK RESERVOIR;37.5;-106;38.5;-107.5;;;OUTCROP;;;SUBAERIAL;VOLCANIC ROCK;TRACHYDACITE;;GLASSY FIAMME;27600000;27600000;OLIGOCENE;;;;;WHOLE ROCK;;;;;;;;;;;;;62.2802182032446;0.601048055418952;;;18.9555906759924;;;;;;;;;4.08993635039674;;;;4.49933135308611;1.38672522969782;0.0521777944604099;;;;;;;3.94745083475486;XRF;;;3.87520465780967;0.310056509389743;;;;;;;;;;;;;;1.06754658385097;;;;;;;;;;;;;;;;;;;;;;;;;6.2;XRF;;;;;;;;;;;;;;81.2;;;;;;93.6;XRF;;;972.8;XRF;;;23.5;XRF;;;548.5;XRF;;;10.3;XRF;;;;;;;;;;;;;;3871.5;XRF;;;20.4;XRF;;;60.2;XRF;;;;27.4;XRF;;;;;;;;;;;;;;;;21.1;;;;;;;;;56.4;XRF;;;;;7.6;XRF;;;1;;;;;;;;;;;;;;;;;;;;;;;;;;;;;;;;;;;;;;;;;;;;;;;;;;;;;;;;;;;;;;;;;;;;;;;;;;;;;;;;
2014;[18586] BACHMANN O. (2014);samp. CRT09-05;;NORTH AMERICAN CORDILLERA - CENOZOIC/QUATERNARY / CORDILLERA UNITED STATES / COLORADO / SAN JUAN VOLCANIC FIELD / CARPENTER RIDGE TUFF;BACHELOR CALDERA, RIBBON MESA - CATTLE MOUNTAIN ROAD;37.5;-106;38.5;-107.5;;;OUTCROP;;;SUBAERIAL;VOLCANIC ROCK;TRACHYDACITE;;FIAMME;27600000;27600000;OLIGOCENE;;;;;WHOLE ROCK;;;;;;;;;;;;;68.5239751540737;0.304711904660831;;;16.8556971419808;;;;;;;;;2.01532230013302;;;;1.50948042539903;0.472655429671916;0.0422372937153627;;;;;;;5.85992167808139;XRF;;;4.31323220821882;0.101570634886944;;;;;;;;;;;;;;0.671892497200403;;;;;;;;;;;;;;;;;;;;;;;;;6.6;XRF;;;;;;;;;;;;;;46.6;;;;;;123.7;XRF;;;421.2;XRF;;;21.4;XRF;;;590;XRF;;;10.8;XRF;;;;;;;;;;;;;;5935.3;XRF;;;18.1;XRF;;;68.3;XRF;;;;30.2;XRF;;;;;;;;;;;;;;;;19.5;;;;;;;;;58.6;XRF;;;;;8.9;XRF;;;3.2;;;;;;;;;;;;;;;;;;;;;;;;;;;;;;;;;;;;;;;;;;;;;;;;;;;;;;;;;;;;;;;;;;;;;;;;;;;;;;;;
2014;[18586] BACHMANN O. (2014);samp. CRT08-7;;NORTH AMERICAN CORDILLERA - CENOZOIC/QUATERNARY / CORDILLERA UNITED STATES / COLORADO / SAN JUAN VOLCANIC FIELD / CARPENTER RIDGE TUFF;BACHELOR CALDERA, NORTH OF BEAVER CREEK RESERVOIR;37.5;-106;38.5;-107.5;;;OUTCROP;;;SUBAERIAL;VOLCANIC ROCK;TRACHYDACITE;;GLASSY FIAMME;27600000;27600000;OLIGOCENE;;;;;MINERAL / COMPONENT (INCL. GROUNDMASS);PLAGIOCLASE;CRT7 PLAG1 C1;;;PRIMARY;;;;;;;;54.94;;;;27.66;;;;;;;;;;;0.3891;;10.31;;;;0.3371;;;;;0.4938;EMP (EPMA);;;5.31;;;;;;;;;;;;;;;;;;;;;;;;;;;;;;;;;;;;;;;;;;;;;;;;;;;;;;;;;;;;;;;;;;;;;;;;;;;;;;;;;;;;;;;;;;;;;;;;;;;;;;;;;;;;;;;;;;;;;;;;;;;;;;;;;;;;;;;;;;;;;;;;;;;;;;;;;;;;;;;;;;;;;;;;;;;;;;;;;;;;;;;;;;;;;;49.8363257613332;;;;;;;;;;;;;;;;;;;;;;;;;;;;;;;
2014;[18586] BACHMANN O. (2014);samp. CRT08-7;;NORTH AMERICAN CORDILLERA - CENOZOIC/QUATERNARY / CORDILLERA UNITED STATES / COLORADO / SAN JUAN VOLCANIC FIELD / CARPENTER RIDGE TUFF;BACHELOR CALDERA, NORTH OF BEAVER CREEK RESERVOIR;37.5;-106;38.5;-107.5;;;OUTCROP;;;SUBAERIAL;VOLCANIC ROCK;TRACHYDACITE;;GLASSY FIAMME;27600000;27600000;OLIGOCENE;;;;;MINERAL / COMPONENT (INCL. GROUNDMASS);PLAGIOCLASE;CRT7 PLAG1 C2;;;PRIMARY;;;;;;;;54.69;;;;27.4;;;;;;;;;;;0.4151;;9.93;;;;0.3419;;;;;0.4793;EMP (EPMA);;;5.49;;;;;;;;;;;;;;;;;;;;;;;;;;;;;;;;;;;;;;;;;;;;;;;;;;;;;;;;;;;;;;;;;;;;;;;;;;;;;;;;;;;;;;;;;;;;;;;;;;;;;;;;;;;;;;;;;;;;;;;;;;;;;;;;;;;;;;;;;;;;;;;;;;;;;;;;;;;;;;;;;;;;;;;;;;;;;;;;;;;;;;;;;;;;;;48.1650014838263;;;;;;;;;;;;;;;;;;;;;;;;;;;;;;;