Year;CITATION;SAMPLE NAME;UNIQUE_ID;LOCATION;LOCATION COMMENT;LATITUDE (MIN.);LONGITUDE (MIN.);LATITUDE (MAX.);LONGITUDE (MAX.);ELEVATION (MIN.);ELEVATION (MAX.);SAMPLING TECHNIQUE;DRILLING DEPTH (MIN.);DRILLING DEPTH (MAX.);LAND/SEA (SAMPLING);ROCK TYPE;ROCK NAME;ROCK TEXTURE;SAMPLE COMMENT;AGE (MIN.);AGE (MAX.);GEOLOGICAL AGE;GEOLOGICAL AGE PREFIX;ERUPTION YEAR;ALTERATION;ALTERATION TYPE;TYPE OF MATERIAL;MINERAL / COMPONENT;SPOT (MINERAL);CRYSTAL;RIM / CORE (MINERAL GRAINS);PRIMARY/SECONDARY;INCLUSION TYPE;SPOT (INCLUSION);MINERAL (INCLUSION);RIM / CORE (INCLUSION);HOSTMINERAL (INCLUSION);HEATING;HEATING TEMPERATURE (?C);SIO2(WT%);TIO2(WT%);ZRO2(WT%);B2O3(WT%);AL2O3(WT%);CR2O3(WT%);LA2O3(WT%);CE2O3(WT%);Y2O3(WT%);V2O3(WT%);NB2O3(WT%);TA2O5(WT%);WO3(WT%);FE2O3T(WT%);FE2O3(WT%);FEOT(WT%);FEO(WT%);CAO(WT%);MGO(WT%);MNO(WT%);BAO(WT%);SRO(WT%);NIO(WT%);ZNO(WT%);CS2O(WT%);RB2O(WT%);K2O(WT%);;;;NA2O(WT%);P2O5(WT%);H2O(WT%);;;;H2OP(WT%);H2OM(WT%);CO2(WT%);C(WT%);F(WT%);CL(WT%);SO2(WT%);SO3(WT%);S(WT%);LOI(WT%);AL(WT%);TI(WT%);FE(WT%);MG(WT%);CA(WT%);K(WT%);NA(WT%);LI(PPM);BE(PPM);B(PPM);C(PPM);F(PPM);NA(PPM);MG(PPM);AL(PPM);P(PPM);S(PPM);CL(PPM);AR40(AT/G);AR40(CCMSTP/G);AR40(MOL/G);AR40(PPB);K(PPM);CA(PPM);SC(PPM);;;;TI(PPM);;;;V(PPM);CR(PPM);MN(PPM);FE(PPM);CO(PPM);NI(PPM);CU(PPM);ZN(PPM);GA(PPM);GE(PPM);AS(PPM);SE(PPM);BR(PPM);RB(PPM): altern. values or methods;;;;SR(PPM): altern. values or methods;;;;Y(PPM): altern. values or methods;;;;ZR(PPM): altern. values or methods;;;;NB(PPM): altern. values or methods;;;;MO(PPM): altern. values or methods;;;;AG(PPM);CD(PPM);IN(PPM);SN(PPM);SB(PPM);TE(PPM);CS(PPM);BA(PPM): altern. values or methods;;;;LA(PPM): altern. values or methods;;;;CE(PPM): altern. values or methods;;;;PR(PPM);ND(PPM): altern. values or methods;;;;SM(PPM): altern. values or methods;;;;EU(PPM);GD(PPM);TB(PPM);DY(PPM);HO(PPM);ER(PPM);TM(PPM);YB(PPM);LU(PPM);HF(PPM);TA(PPM);W(PPM);RE(PPM);AU(PPM);AU(PPB);HG(PPM);HG(PPB);TL(PPM);PB(PPM): altern. values or methods;;;;PB206(PPM);BI(PPM);TH(PPM): altern. values or methods;;;;U(PPM);ND143_ND144;ND143_ND144_INI;EPSILON_ND;EPSILON_ND_INI;SM147_ND144;SR87_SR86;SR87_SR86_INI;EPSILON_SR;EPSILON_SR_INI;RB87_SR86;PB206_PB204;PB206_PB204_INI;PB206_PB207;PB206_PB208;PB207_PB204;PB207_PB204_INI;PB207_PB206;PB208_PB204;PB208_PB204_INI;PB208_PB206;HF176_HF177;HF176_HF177_INI;EPSILON_HF_INI;LU176_HF177;YB176_HF177;AR36_AR39;AR36_AR40;AR37_AR39;AR38_AR39;AR39_AR40;AR40_AR36;AR40_AR39;PB206_U238;PB207_U235;PB208_TH232;TH232_PB204;TH232_U238;U235_PB204;U238_PB204;U238_PB206;D7LI(VS LSVEC);D18O(PER MIL);D18O(VS SMOW);D18O(VS VSMOW);D56FE(VS IRMM-014);D57FE(VS IRMM-014);DD(VS SMOW);ALBITE(MOL%);ANORTHITE(MOL%);CA OLIVINE(MOL%);ENSTATITE(MOL%);FAYALITE(MOL%);FORSTERITE(MOL%);FERROSILITE(MOL%);ORTHOCLASE(MOL%);TEPHROITE(MOL%);ULVOSPINEL(MOL%);WOLLASTONITE(MOL%);AGE(KA): altern. values or methods;;;;AGE(MA): altern. values or methods;;;;;;;;AGE_PB207_PB206(MA);AGE_PB207_U235(MA);AGE_PB206_U238(MA): altern. values or methods;;;;;;AGE_PB208_TH232(MA);
2018;[21910] LECHMANN A. (2018);samp. 60;;ANATOLIA-IRAN BELT / IRAN / LESSER CAUCASUS;;38.4151;45.5672;38.4151;45.5672;;;OUTCROP;;;SUBAERIAL;VOLCANIC ROCK;TRACHYDACITE;HYPABYSSAL, HOLOCRYSTALLINE, PORPHYRITIC;;;;MIOCENE;;;;;MINERAL / COMPONENT (INCL. GROUNDMASS);ZIRCON;AZ14-060_F_19;;;PRIMARY;;;;;;;;;;;;;;;;;;;;;;;;;;;;;;;;;;;;;;;;;;;;;;;;;;;;;;;;;;;;;;;;;;;;;;;;;;;;;;;;;;;;;;;;;;;;;;;;;;;;;;;;;;;;;;;;;;;;;;;;;;;;;;;;;;;;;;;;;;;;;;;;;;;;;;;;;;;;;;;;;;;;;;;;;;;;;;;95.1;ICPMS_LA;;;398;;;;;;;;;;;;;;;;;0.0496;;;;;;;;;;;;;;;;0.001859;0.01274;;;;;;;;;;;;;;;;;;;;;;;;;;;;;12.85;PB207_U235  AGE;11.98;PB206_U238  AGE;;;;;12.0724520591741;;;;;;;;;
2018;[21910] LECHMANN A. (2018);samp. 60;;ANATOLIA-IRAN BELT / IRAN / LESSER CAUCASUS;;38.4151;45.5672;38.4151;45.5672;;;OUTCROP;;;SUBAERIAL;VOLCANIC ROCK;TRACHYDACITE;HYPABYSSAL, HOLOCRYSTALLINE, PORPHYRITIC;;;;MIOCENE;;;;;MINERAL / COMPONENT (INCL. GROUNDMASS);ZIRCON;AZ14-060_F_20;;;PRIMARY;;;;;;;;;;;;;;;;;;;;;;;;;;;;;;;;;;;;;;;;;;;;;;;;;;;;;;;;;;;;;;;;;;;;;;;;;;;;;;;;;;;;;;;;;;;;;;;;;;;;;;;;;;;;;;;;;;;;;;;;;;;;;;;;;;;;;;;;;;;;;;;;;;;;;;;;;;;;;;;;;;;;;;;;;;;;;;;236;ICPMS_LA;;;727;;;;;;;;;;;;;;;;;0.0472;;;;;;;;;;;;;;;;0.001939;0.01259;;;;;;;;;;;;;;;;;;;;;;;;;;;;;12.7;PB207_U235  AGE;12.49;PB206_U238  AGE;;;;;12.5844444162305;;;;;;;;;
2018;[21910] LECHMANN A. (2018);samp. 60;;ANATOLIA-IRAN BELT / IRAN / LESSER CAUCASUS;;38.4151;45.5672;38.4151;45.5672;;;OUTCROP;;;SUBAERIAL;VOLCANIC ROCK;TRACHYDACITE;HYPABYSSAL, HOLOCRYSTALLINE, PORPHYRITIC;;;;MIOCENE;;;;;MINERAL / COMPONENT (INCL. GROUNDMASS);ZIRCON;AZ14-060_F_21;;;PRIMARY;;;;;;;;;;;;;;;;;;;;;;;;;;;;;;;;;;;;;;;;;;;;;;;;;;;;;;;;;;;;;;;;;;;;;;;;;;;;;;;;;;;;;;;;;;;;;;;;;;;;;;;;;;;;;;;;;;;;;;;;;;;;;;;;;;;;;;;;;;;;;;;;;;;;;;;;;;;;;;;;;;;;;;;;;;;;;;;174;ICPMS_LA;;;555;;;;;;;;;;;;;;;;;0.0507;;;;;;;;;;;;;;;;0.002068;0.0141;;;;;;;;;;;;;;;;;;;;;;;;;;;;;14.2;PB207_U235  AGE;13.32;PB206_U238  AGE;;;;;13.4142250347796;;;;;;;;;
2018;[21910] LECHMANN A. (2018);samp. 60;;ANATOLIA-IRAN BELT / IRAN / LESSER CAUCASUS;;38.4151;45.5672;38.4151;45.5672;;;OUTCROP;;;SUBAERIAL;VOLCANIC ROCK;TRACHYDACITE;HYPABYSSAL, HOLOCRYSTALLINE, PORPHYRITIC;;;;MIOCENE;;;;;MINERAL / COMPONENT (INCL. GROUNDMASS);ZIRCON;AZ14-060_F_22;;;PRIMARY;;;;;;;;;;;;;;;;;;;;;;;;;;;;;;;;;;;;;;;;;;;;;;;;;;;;;;;;;;;;;;;;;;;;;;;;;;;;;;;;;;;;;;;;;;;;;;;;;;;;;;;;;;;;;;;;;;;;;;;;;;;;;;;;;;;;;;;;;;;;;;;;;;;;;;;;;;;;;;;;;;;;;;;;;;;;;;;150;ICPMS_LA;;;575;;;;;;;;;;;;;;;;;0.0447;;;;;;;;;;;;;;;;0.002059;0.01284;;;;;;;;;;;;;;;;;;;;;;;;;;;;;12.95;PB207_U235  AGE;13.26;PB206_U238  AGE;;;;;13.3587142109266;;;;;;;;;
2018;[21910] LECHMANN A. (2018);samp. 60;;ANATOLIA-IRAN BELT / IRAN / LESSER CAUCASUS;;38.4151;45.5672;38.4151;45.5672;;;OUTCROP;;;SUBAERIAL;VOLCANIC ROCK;TRACHYDACITE;HYPABYSSAL, HOLOCRYSTALLINE, PORPHYRITIC;;;;MIOCENE;;;;;MINERAL / COMPONENT (INCL. GROUNDMASS);ZIRCON;AZ14-060_F_23;;;PRIMARY;;;;;;;;;;;;;;;;;;;;;;;;;;;;;;;;;;;;;;;;;;;;;;;;;;;;;;;;;;;;;;;;;;;;;;;;;;;;;;;;;;;;;;;;;;;;;;;;;;;;;;;;;;;;;;;;;;;;;;;;;;;;;;;;;;;;;;;;;;;;;;;;;;;;;;;;;;;;;;;;;;;;;;;;;;;;;;;84.9;ICPMS_LA;;;357;;;;;;;;;;;;;;;;;0.0445;;;;;;;;;;;;;;;;0.001856;0.01166;;;;;;;;;;;;;;;;;;;;;;;;;;;;;11.77;PB207_U235  AGE;11.95;PB206_U238  AGE;;;;;12.0532848795454;;;;;;;;;
2018;[21910] LECHMANN A. (2018);samp. 60;;ANATOLIA-IRAN BELT / IRAN / LESSER CAUCASUS;;38.4151;45.5672;38.4151;45.5672;;;OUTCROP;;;SUBAERIAL;VOLCANIC ROCK;TRACHYDACITE;HYPABYSSAL, HOLOCRYSTALLINE, PORPHYRITIC;;;;MIOCENE;;;;;MINERAL / COMPONENT (INCL. GROUNDMASS);ZIRCON;AZ14-060_F_24;;;PRIMARY;;;;;;;;;;;;;;;;;;;;;;;;;;;;;;;;;;;;;;;;;;;;;;;;;;;;;;;;;;;;;;;;;;;;;;;;;;;;;;;;;;;;;;;;;;;;;;;;;;;;;;;;;;;;;;;;;;;;;;;;;;;;;;;;;;;;;;;;;;;;;;;;;;;;;;;;;;;;;;;;;;;;;;;;;;;;;;;62.1;ICPMS_LA;;;289.4;;;;;;;;;;;;;;;;;0.0454;;;;;;;;;;;;;;;;0.001859;0.0119;;;;;;;;;;;;;;;;;;;;;;;;;;;;;12;PB207_U235  AGE;11.98;PB206_U238  AGE;;;;;12.0733340596202;;;;;;;;;
2018;[21910] LECHMANN A. (2018);samp. 60;;ANATOLIA-IRAN BELT / IRAN / LESSER CAUCASUS;;38.4151;45.5672;38.4151;45.5672;;;OUTCROP;;;SUBAERIAL;VOLCANIC ROCK;TRACHYDACITE;HYPABYSSAL, HOLOCRYSTALLINE, PORPHYRITIC;;;;MIOCENE;;;;;MINERAL / COMPONENT (INCL. GROUNDMASS);ZIRCON;AZ14-060_F_25;;;PRIMARY;;;;;;;;;;;;;;;;;;;;;;;;;;;;;;;;;;;;;;;;;;;;;;;;;;;;;;;;;;;;;;;;;;;;;;;;;;;;;;;;;;;;;;;;;;;;;;;;;;;;;;;;;;;;;;;;;;;;;;;;;;;;;;;;;;;;;;;;;;;;;;;;;;;;;;;;;;;;;;;;;;;;;;;;;;;;;;;153;ICPMS_LA;;;429;;;;;;;;;;;;;;;;;0.0457;;;;;;;;;;;;;;;;0.001959;0.01272;;;;;;;;;;;;;;;;;;;;;;;;;;;;;12.83;PB207_U235  AGE;12.62;PB206_U238  AGE;;;;;12.7125152878114;;;;;;;;;
2018;[21910] LECHMANN A. (2018);samp. 60;;ANATOLIA-IRAN BELT / IRAN / LESSER CAUCASUS;;38.4151;45.5672;38.4151;45.5672;;;OUTCROP;;;SUBAERIAL;VOLCANIC ROCK;TRACHYDACITE;HYPABYSSAL, HOLOCRYSTALLINE, PORPHYRITIC;;;;MIOCENE;;;;;MINERAL / COMPONENT (INCL. GROUNDMASS);ZIRCON;AZ14-060_F_26;;;PRIMARY;;;;;;;;;;;;;;;;;;;;;;;;;;;;;;;;;;;;;;;;;;;;;;;;;;;;;;;;;;;;;;;;;;;;;;;;;;;;;;;;;;;;;;;;;;;;;;;;;;;;;;;;;;;;;;;;;;;;;;;;;;;;;;;;;;;;;;;;;;;;;;;;;;;;;;;;;;;;;;;;;;;;;;;;;;;;;;;51;ICPMS_LA;;;243.8;;;;;;;;;;;;;;;;;0.0529;;;;;;;;;;;;;;;;0.001897;0.0137;;;;;;;;;;;;;;;;;;;;;;;;;;;;;13.8;PB207_U235  AGE;12.21;PB206_U238  AGE;;;;;12.3181427683323;;;;;;;;;
2018;[21910] LECHMANN A. (2018);samp. 60;;ANATOLIA-IRAN BELT / IRAN / LESSER CAUCASUS;;38.4151;45.5672;38.4151;45.5672;;;OUTCROP;;;SUBAERIAL;VOLCANIC ROCK;TRACHYDACITE;HYPABYSSAL, HOLOCRYSTALLINE, PORPHYRITIC;;;;MIOCENE;;;;;MINERAL / COMPONENT (INCL. GROUNDMASS);ZIRCON;AZ14-060_F_27;;;PRIMARY;;;;;;;;;;;;;;;;;;;;;;;;;;;;;;;;;;;;;;;;;;;;;;;;;;;;;;;;;;;;;;;;;;;;;;;;;;;;;;;;;;;;;;;;;;;;;;;;;;;;;;;;;;;;;;;;;;;;;;;;;;;;;;;;;;;;;;;;;;;;;;;;;;;;;;;;;;;;;;;;;;;;;;;;;;;;;;;135.6;ICPMS_LA;;;593;;;;;;;;;;;;;;;;;0.0482;;;;;;;;;;;;;;;;0.002047;0.01369;;;;;;;;;;;;;;;;;;;;;;;;;;;;;13.81;PB207_U235  AGE;13.18;PB206_U238  AGE;;;;;13.2825670799602;;;;;;;;;
2018;[21910] LECHMANN A. (2018);samp. 60;;ANATOLIA-IRAN BELT / IRAN / LESSER CAUCASUS;;38.4151;45.5672;38.4151;45.5672;;;OUTCROP;;;SUBAERIAL;VOLCANIC ROCK;TRACHYDACITE;HYPABYSSAL, HOLOCRYSTALLINE, PORPHYRITIC;;;;MIOCENE;;;;;MINERAL / COMPONENT (INCL. GROUNDMASS);ZIRCON;AZ14-060_F_28;;;PRIMARY;;;;;;;;;;;;;;;;;;;;;;;;;;;;;;;;;;;;;;;;;;;;;;;;;;;;;;;;;;;;;;;;;;;;;;;;;;;;;;;;;;;;;;;;;;;;;;;;;;;;;;;;;;;;;;;;;;;;;;;;;;;;;;;;;;;;;;;;;;;;;;;;;;;;;;;;;;;;;;;;;;;;;;;;;;;;;;;142.4;ICPMS_LA;;;528;;;;;;;;;;;;;;;;;0.0478;;;;;;;;;;;;;;;;0.00203;0.01326;;;;;;;;;;;;;;;;;;;;;;;;;;;;;13.37;PB207_U235  AGE;13.08;PB206_U238  AGE;;;;;13.1720733104879;;;;;;;;;
2018;[21910] LECHMANN A. (2018);samp. 60;;ANATOLIA-IRAN BELT / IRAN / LESSER CAUCASUS;;38.4151;45.5672;38.4151;45.5672;;;OUTCROP;;;SUBAERIAL;VOLCANIC ROCK;TRACHYDACITE;HYPABYSSAL, HOLOCRYSTALLINE, PORPHYRITIC;;;;MIOCENE;;;;;MINERAL / COMPONENT (INCL. GROUNDMASS);ZIRCON;AZ14-060_F_29;;;PRIMARY;;;;;;;;;;;;;;;;;;;;;;;;;;;;;;;;;;;;;;;;;;;;;;;;;;;;;;;;;;;;;;;;;;;;;;;;;;;;;;;;;;;;;;;;;;;;;;;;;;;;;;;;;;;;;;;;;;;;;;;;;;;;;;;;;;;;;;;;;;;;;;;;;;;;;;;;;;;;;;;;;;;;;;;;;;;;;;;240.7;ICPMS_LA;;;759;;;;;;;;;;;;;;;;;0.0486;;;;;;;;;;;;;;;;0.001981;0.01297;;;;;;;;;;;;;;;;;;;;;;;;;;;;;13.08;PB207_U235  AGE;12.76;PB206_U238  AGE;;;;;12.8550005095567;;;;;;;;;
2018;[21910] LECHMANN A. (2018);samp. 60;;ANATOLIA-IRAN BELT / IRAN / LESSER CAUCASUS;;38.4151;45.5672;38.4151;45.5672;;;OUTCROP;;;SUBAERIAL;VOLCANIC ROCK;TRACHYDACITE;HYPABYSSAL, HOLOCRYSTALLINE, PORPHYRITIC;;;;MIOCENE;;;;;MINERAL / COMPONENT (INCL. GROUNDMASS);ZIRCON;AZ14-060_F_30;;;PRIMARY;;;;;;;;;;;;;;;;;;;;;;;;;;;;;;;;;;;;;;;;;;;;;;;;;;;;;;;;;;;;;;;;;;;;;;;;;;;;;;;;;;;;;;;;;;;;;;;;;;;;;;;;;;;;;;;;;;;;;;;;;;;;;;;;;;;;;;;;;;;;;;;;;;;;;;;;;;;;;;;;;;;;;;;;;;;;;;;36.2;ICPMS_LA;;;70.1;;;;;;;;;;;;;;;;;0.0536;;;;;;;;;;;;;;;;0.05404;0.398;;;;;;;;;;;;;;;;;;;;;;;;;;;;;339.5;PB207_U235  AGE;339.2;PB206_U238  AGE;;;;;339.36756294718;;;;;;;;;
2018;[21910] LECHMANN A. (2018);samp. 60;;ANATOLIA-IRAN BELT / IRAN / LESSER CAUCASUS;;38.4151;45.5672;38.4151;45.5672;;;OUTCROP;;;SUBAERIAL;VOLCANIC ROCK;TRACHYDACITE;HYPABYSSAL, HOLOCRYSTALLINE, PORPHYRITIC;;;;MIOCENE;;;;;MINERAL / COMPONENT (INCL. GROUNDMASS);ZIRCON;AZ14-060_F_31;;;PRIMARY;;;;;;;;;;;;;;;;;;;;;;;;;;;;;;;;;;;;;;;;;;;;;;;;;;;;;;;;;;;;;;;;;;;;;;;;;;;;;;;;;;;;;;;;;;;;;;;;;;;;;;;;;;;;;;;;;;;;;;;;;;;;;;;;;;;;;;;;;;;;;;;;;;;;;;;;;;;;;;;;;;;;;;;;;;;;;;;159.7;ICPMS_LA;;;663;;;;;;;;;;;;;;;;;0.0496;;;;;;;;;;;;;;;;0.00198;0.01348;;;;;;;;;;;;;;;;;;;;;;;;;;;;;13.6;PB207_U235  AGE;12.75;PB206_U238  AGE;;;;;12.8513870553131;;;;;;;;;
2018;[21910] LECHMANN A. (2018);samp. 60;;ANATOLIA-IRAN BELT / IRAN / LESSER CAUCASUS;;38.4151;45.5672;38.4151;45.5672;;;OUTCROP;;;SUBAERIAL;VOLCANIC ROCK;TRACHYDACITE;HYPABYSSAL, HOLOCRYSTALLINE, PORPHYRITIC;;;;MIOCENE;;;;;MINERAL / COMPONENT (INCL. GROUNDMASS);ZIRCON;AZ14-060_F_32;;;PRIMARY;;;;;;;;;;;;;;;;;;;;;;;;;;;;;;;;;;;;;;;;;;;;;;;;;;;;;;;;;;;;;;;;;;;;;;;;;;;;;;;;;;;;;;;;;;;;;;;;;;;;;;;;;;;;;;;;;;;;;;;;;;;;;;;;;;;;;;;;;;;;;;;;;;;;;;;;;;;;;;;;;;;;;;;;;;;;;;;83.9;ICPMS_LA;;;428;;;;;;;;;;;;;;;;;0.0481;;;;;;;;;;;;;;;;0.001929;0.01256;;;;;;;;;;;;;;;;;;;;;;;;;;;;;12.67;PB207_U235  AGE;12.42;PB206_U238  AGE;;;;;12.5248466696354;;;;;;;;;
2018;[21910] LECHMANN A. (2018);samp. 60;;ANATOLIA-IRAN BELT / IRAN / LESSER CAUCASUS;;38.4151;45.5672;38.4151;45.5672;;;OUTCROP;;;SUBAERIAL;VOLCANIC ROCK;TRACHYDACITE;HYPABYSSAL, HOLOCRYSTALLINE, PORPHYRITIC;;;;MIOCENE;;;;;MINERAL / COMPONENT (INCL. GROUNDMASS);ZIRCON;AZ14-060_F_33;;;PRIMARY;;;;;;;;;;;;;;;;;;;;;;;;;;;;;;;;;;;;;;;;;;;;;;;;;;;;;;;;;;;;;;;;;;;;;;;;;;;;;;;;;;;;;;;;;;;;;;;;;;;;;;;;;;;;;;;;;;;;;;;;;;;;;;;;;;;;;;;;;;;;;;;;;;;;;;;;;;;;;;;;;;;;;;;;;;;;;;;339;ICPMS_LA;;;681;;;;;;;;;;;;;;;;;0.0476;;;;;;;;;;;;;;;;0.002009;0.01312;;;;;;;;;;;;;;;;;;;;;;;;;;;;;13.23;PB207_U235  AGE;12.94;PB206_U238  AGE;;;;;13.0288941982016;;;;;;;;;
2018;[21910] LECHMANN A. (2018);samp. 60;;ANATOLIA-IRAN BELT / IRAN / LESSER CAUCASUS;;38.4151;45.5672;38.4151;45.5672;;;OUTCROP;;;SUBAERIAL;VOLCANIC ROCK;TRACHYDACITE;HYPABYSSAL, HOLOCRYSTALLINE, PORPHYRITIC;;;;MIOCENE;;;;;MINERAL / COMPONENT (INCL. GROUNDMASS);ZIRCON;AZ14-060_F_34;;;PRIMARY;;;;;;;;;;;;;;;;;;;;;;;;;;;;;;;;;;;;;;;;;;;;;;;;;;;;;;;;;;;;;;;;;;;;;;;;;;;;;;;;;;;;;;;;;;;;;;;;;;;;;;;;;;;;;;;;;;;;;;;;;;;;;;;;;;;;;;;;;;;;;;;;;;;;;;;;;;;;;;;;;;;;;;;;;;;;;;;45.7;ICPMS_LA;;;200;;;;;;;;;;;;;;;;;0.0569;;;;;;;;;;;;;;;;0.001867;0.0148;;;;;;;;;;;;;;;;;;;;;;;;;;;;;14.9;PB207_U235  AGE;12.03;PB206_U238  AGE;;;;;12.124833419114;;;;;;;;;
2018;[21910] LECHMANN A. (2018);samp. 60;;ANATOLIA-IRAN BELT / IRAN / LESSER CAUCASUS;;38.4151;45.5672;38.4151;45.5672;;;OUTCROP;;;SUBAERIAL;VOLCANIC ROCK;TRACHYDACITE;HYPABYSSAL, HOLOCRYSTALLINE, PORPHYRITIC;;;;MIOCENE;;;;;MINERAL / COMPONENT (INCL. GROUNDMASS);ZIRCON;AZ14-060_F_35;;;PRIMARY;;;;;;;;;;;;;;;;;;;;;;;;;;;;;;;;;;;;;;;;;;;;;;;;;;;;;;;;;;;;;;;;;;;;;;;;;;;;;;;;;;;;;;;;;;;;;;;;;;;;;;;;;;;;;;;;;;;;;;;;;;;;;;;;;;;;;;;;;;;;;;;;;;;;;;;;;;;;;;;;;;;;;;;;;;;;;;;299;ICPMS_LA;;;762;;;;;;;;;;;;;;;;;0.045;;;;;;;;;;;;;;;;0.00202;0.01242;;;;;;;;;;;;;;;;;;;;;;;;;;;;;12.53;PB207_U235  AGE;13.01;PB206_U238  AGE;;;;;13.1034162291029;;;;;;;;;
2018;[21910] LECHMANN A. (2018);samp. 60;;ANATOLIA-IRAN BELT / IRAN / LESSER CAUCASUS;;38.4151;45.5672;38.4151;45.5672;;;OUTCROP;;;SUBAERIAL;VOLCANIC ROCK;TRACHYDACITE;HYPABYSSAL, HOLOCRYSTALLINE, PORPHYRITIC;;;;MIOCENE;;;;;MINERAL / COMPONENT (INCL. GROUNDMASS);ZIRCON;AZ14-060_F_36;;;PRIMARY;;;;;;;;;;;;;;;;;;;;;;;;;;;;;;;;;;;;;;;;;;;;;;;;;;;;;;;;;;;;;;;;;;;;;;;;;;;;;;;;;;;;;;;;;;;;;;;;;;;;;;;;;;;;;;;;;;;;;;;;;;;;;;;;;;;;;;;;;;;;;;;;;;;;;;;;;;;;;;;;;;;;;;;;;;;;;;;53.9;ICPMS_LA;;;264;;;;;;;;;;;;;;;;;0.0506;;;;;;;;;;;;;;;;0.001855;0.0128;;;;;;;;;;;;;;;;;;;;;;;;;;;;;13;PB207_U235  AGE;11.95;PB206_U238  AGE;;;;;12.0484202038952;;;;;;;;;
2018;[21910] LECHMANN A. (2018);samp. 60;;ANATOLIA-IRAN BELT / IRAN / LESSER CAUCASUS;;38.4151;45.5672;38.4151;45.5672;;;OUTCROP;;;SUBAERIAL;VOLCANIC ROCK;TRACHYDACITE;HYPABYSSAL, HOLOCRYSTALLINE, PORPHYRITIC;;;;MIOCENE;;;;;MINERAL / COMPONENT (INCL. GROUNDMASS);ZIRCON;AZ14-060_F_37;;;PRIMARY;;;;;;;;;;;;;;;;;;;;;;;;;;;;;;;;;;;;;;;;;;;;;;;;;;;;;;;;;;;;;;;;;;;;;;;;;;;;;;;;;;;;;;;;;;;;;;;;;;;;;;;;;;;;;;;;;;;;;;;;;;;;;;;;;;;;;;;;;;;;;;;;;;;;;;;;;;;;;;;;;;;;;;;;;;;;;;;148.1;ICPMS_LA;;;589;;;;;;;;;;;;;;;;;0.053;;;;;;;;;;;;;;;;0.001957;0.01428;;;;;;;;;;;;;;;;;;;;;;;;;;;;;14.4;PB207_U235  AGE;12.6;PB206_U238  AGE;;;;;12.7030224368463;;;;;;;;;
2018;[21910] LECHMANN A. (2018);samp. 60;;ANATOLIA-IRAN BELT / IRAN / LESSER CAUCASUS;;38.4151;45.5672;38.4151;45.5672;;;OUTCROP;;;SUBAERIAL;VOLCANIC ROCK;TRACHYDACITE;HYPABYSSAL, HOLOCRYSTALLINE, PORPHYRITIC;;;;MIOCENE;;;;;MINERAL / COMPONENT (INCL. GROUNDMASS);ZIRCON;AZ14-060_F_38;;;PRIMARY;;;;;;;;;;;;;;;;;;;;;;;;;;;;;;;;;;;;;;;;;;;;;;;;;;;;;;;;;;;;;;;;;;;;;;;;;;;;;;;;;;;;;;;;;;;;;;;;;;;;;;;;;;;;;;;;;;;;;;;;;;;;;;;;;;;;;;;;;;;;;;;;;;;;;;;;;;;;;;;;;;;;;;;;;;;;;;;123.2;ICPMS_LA;;;543;;;;;;;;;;;;;;;;;0.0507;;;;;;;;;;;;;;;;0.002101;0.0143;;;;;;;;;;;;;;;;;;;;;;;;;;;;;14.4;PB207_U235  AGE;13.53;PB206_U238  AGE;;;;;13.6303458693883;;;;;;;;;
2018;[21910] LECHMANN A. (2018);samp. 60;;ANATOLIA-IRAN BELT / IRAN / LESSER CAUCASUS;;38.4151;45.5672;38.4151;45.5672;;;OUTCROP;;;SUBAERIAL;VOLCANIC ROCK;TRACHYDACITE;HYPABYSSAL, HOLOCRYSTALLINE, PORPHYRITIC;;;;MIOCENE;;;;;MINERAL / COMPONENT (INCL. GROUNDMASS);ZIRCON;AZ14-060_F_39;;;PRIMARY;;;;;;;;;;;;;;;;;;;;;;;;;;;;;;;;;;;;;;;;;;;;;;;;;;;;;;;;;;;;;;;;;;;;;;;;;;;;;;;;;;;;;;;;;;;;;;;;;;;;;;;;;;;;;;;;;;;;;;;;;;;;;;;;;;;;;;;;;;;;;;;;;;;;;;;;;;;;;;;;;;;;;;;;;;;;;;;69.7;ICPMS_LA;;;310;;;;;;;;;;;;;;;;;0.0449;;;;;;;;;;;;;;;;0.001907;0.0118;;;;;;;;;;;;;;;;;;;;;;;;;;;;;11.9;PB207_U235  AGE;12.28;PB206_U238  AGE;;;;;12.3821729868856;;;;;;;;;
2018;[21910] LECHMANN A. (2018);samp. 60;;ANATOLIA-IRAN BELT / IRAN / LESSER CAUCASUS;;38.4151;45.5672;38.4151;45.5672;;;OUTCROP;;;SUBAERIAL;VOLCANIC ROCK;TRACHYDACITE;HYPABYSSAL, HOLOCRYSTALLINE, PORPHYRITIC;;;;MIOCENE;;;;;MINERAL / COMPONENT (INCL. GROUNDMASS);ZIRCON;AZ14-060_F_40;;;PRIMARY;;;;;;;;;;;;;;;;;;;;;;;;;;;;;;;;;;;;;;;;;;;;;;;;;;;;;;;;;;;;;;;;;;;;;;;;;;;;;;;;;;;;;;;;;;;;;;;;;;;;;;;;;;;;;;;;;;;;;;;;;;;;;;;;;;;;;;;;;;;;;;;;;;;;;;;;;;;;;;;;;;;;;;;;;;;;;;;108.8;ICPMS_LA;;;525;;;;;;;;;;;;;;;;;0.0477;;;;;;;;;;;;;;;;0.001993;0.01312;;;;;;;;;;;;;;;;;;;;;;;;;;;;;13.23;PB207_U235  AGE;12.83;PB206_U238  AGE;;;;;12.936293066603;;;;;;;;;
2018;[21910] LECHMANN A. (2018);samp. 60;;ANATOLIA-IRAN BELT / IRAN / LESSER CAUCASUS;;38.4151;45.5672;38.4151;45.5672;;;OUTCROP;;;SUBAERIAL;VOLCANIC ROCK;TRACHYDACITE;HYPABYSSAL, HOLOCRYSTALLINE, PORPHYRITIC;;;;MIOCENE;;;;;MINERAL / COMPONENT (INCL. GROUNDMASS);ZIRCON;AZ14-060_F_41;;;PRIMARY;;;;;;;;;;;;;;;;;;;;;;;;;;;;;;;;;;;;;;;;;;;;;;;;;;;;;;;;;;;;;;;;;;;;;;;;;;;;;;;;;;;;;;;;;;;;;;;;;;;;;;;;;;;;;;;;;;;;;;;;;;;;;;;;;;;;;;;;;;;;;;;;;;;;;;;;;;;;;;;;;;;;;;;;;;;;;;;64.6;ICPMS_LA;;;282;;;;;;;;;;;;;;;;;0.0508;;;;;;;;;;;;;;;;0.001861;0.01302;;;;;;;;;;;;;;;;;;;;;;;;;;;;;13.13;PB207_U235  AGE;11.98;PB206_U238  AGE;;;;;12.0860370940778;;;;;;;;;
2018;[21910] LECHMANN A. (2018);samp. 60;;ANATOLIA-IRAN BELT / IRAN / LESSER CAUCASUS;;38.4151;45.5672;38.4151;45.5672;;;OUTCROP;;;SUBAERIAL;VOLCANIC ROCK;TRACHYDACITE;HYPABYSSAL, HOLOCRYSTALLINE, PORPHYRITIC;;;;MIOCENE;;;;;MINERAL / COMPONENT (INCL. GROUNDMASS);ZIRCON;AZ14-060_F_42;;;PRIMARY;;;;;;;;;;;;;;;;;;;;;;;;;;;;;;;;;;;;;;;;;;;;;;;;;;;;;;;;;;;;;;;;;;;;;;;;;;;;;;;;;;;;;;;;;;;;;;;;;;;;;;;;;;;;;;;;;;;;;;;;;;;;;;;;;;;;;;;;;;;;;;;;;;;;;;;;;;;;;;;;;;;;;;;;;;;;;;;186.4;ICPMS_LA;;;651;;;;;;;;;;;;;;;;;0.0487;;;;;;;;;;;;;;;;0.002111;0.01362;;;;;;;;;;;;;;;;;;;;;;;;;;;;;13.73;PB207_U235  AGE;13.59;PB206_U238  AGE;;;;;13.6922875961913;;;;;;;;;
2018;[21910] LECHMANN A. (2018);samp. 60;;ANATOLIA-IRAN BELT / IRAN / LESSER CAUCASUS;;38.4151;45.5672;38.4151;45.5672;;;OUTCROP;;;SUBAERIAL;VOLCANIC ROCK;TRACHYDACITE;HYPABYSSAL, HOLOCRYSTALLINE, PORPHYRITIC;;;;MIOCENE;;;;;MINERAL / COMPONENT (INCL. GROUNDMASS);ZIRCON;AZ14-060_F_43;;;PRIMARY;;;;;;;;;;;;;;;;;;;;;;;;;;;;;;;;;;;;;;;;;;;;;;;;;;;;;;;;;;;;;;;;;;;;;;;;;;;;;;;;;;;;;;;;;;;;;;;;;;;;;;;;;;;;;;;;;;;;;;;;;;;;;;;;;;;;;;;;;;;;;;;;;;;;;;;;;;;;;;;;;;;;;;;;;;;;;;;108;ICPMS_LA;;;467;;;;;;;;;;;;;;;;;0.0503;;;;;;;;;;;;;;;;0.001977;0.0134;;;;;;;;;;;;;;;;;;;;;;;;;;;;;13.51;PB207_U235  AGE;12.73;PB206_U238  AGE;;;;;12.832404246214;;;;;;;;;
2018;[21910] LECHMANN A. (2018);samp. 60;;ANATOLIA-IRAN BELT / IRAN / LESSER CAUCASUS;;38.4151;45.5672;38.4151;45.5672;;;OUTCROP;;;SUBAERIAL;VOLCANIC ROCK;TRACHYDACITE;HYPABYSSAL, HOLOCRYSTALLINE, PORPHYRITIC;;;;MIOCENE;;;;;MINERAL / COMPONENT (INCL. GROUNDMASS);ZIRCON;AZ14-060_F_44;;;PRIMARY;;;;;;;;;;;;;;;;;;;;;;;;;;;;;;;;;;;;;;;;;;;;;;;;;;;;;;;;;;;;;;;;;;;;;;;;;;;;;;;;;;;;;;;;;;;;;;;;;;;;;;;;;;;;;;;;;;;;;;;;;;;;;;;;;;;;;;;;;;;;;;;;;;;;;;;;;;;;;;;;;;;;;;;;;;;;;;;308;ICPMS_LA;;;576;;;;;;;;;;;;;;;;;0.045;;;;;;;;;;;;;;;;0.002117;0.01307;;;;;;;;;;;;;;;;;;;;;;;;;;;;;13.18;PB207_U235  AGE;13.63;PB206_U238  AGE;;;;;13.7214184492651;;;;;;;;;