Year;CITATION;SAMPLE NAME;UNIQUE_ID;LOCATION;LOCATION COMMENT;LATITUDE (MIN.);LONGITUDE (MIN.);LATITUDE (MAX.);LONGITUDE (MAX.);ELEVATION (MIN.);ELEVATION (MAX.);SAMPLING TECHNIQUE;DRILLING DEPTH (MIN.);DRILLING DEPTH (MAX.);LAND/SEA (SAMPLING);ROCK TYPE;ROCK NAME;ROCK TEXTURE;SAMPLE COMMENT;AGE (MIN.);AGE (MAX.);GEOLOGICAL AGE;GEOLOGICAL AGE PREFIX;ERUPTION YEAR;ALTERATION;ALTERATION TYPE;TYPE OF MATERIAL;MINERAL / COMPONENT;SPOT (MINERAL);CRYSTAL;RIM / CORE (MINERAL GRAINS);PRIMARY/SECONDARY;INCLUSION TYPE;SPOT (INCLUSION);MINERAL (INCLUSION);RIM / CORE (INCLUSION);HOSTMINERAL (INCLUSION);HEATING;HEATING TEMPERATURE (?C);SIO2(WT%);TIO2(WT%);ZRO2(WT%);B2O3(WT%);AL2O3(WT%);CR2O3(WT%);LA2O3(WT%);CE2O3(WT%);Y2O3(WT%);V2O3(WT%);NB2O3(WT%);TA2O5(WT%);WO3(WT%);FE2O3T(WT%);FE2O3(WT%);FEOT(WT%);FEO(WT%);CAO(WT%);MGO(WT%);MNO(WT%);BAO(WT%);SRO(WT%);NIO(WT%);ZNO(WT%);CS2O(WT%);RB2O(WT%);K2O(WT%);;;;NA2O(WT%);P2O5(WT%);H2O(WT%);;;;H2OP(WT%);H2OM(WT%);CO2(WT%);C(WT%);F(WT%);CL(WT%);SO2(WT%);SO3(WT%);S(WT%);LOI(WT%);AL(WT%);TI(WT%);FE(WT%);MG(WT%);CA(WT%);K(WT%);NA(WT%);LI(PPM);BE(PPM);B(PPM);C(PPM);F(PPM);NA(PPM);MG(PPM);AL(PPM);P(PPM);S(PPM);CL(PPM);AR40(AT/G);AR40(CCMSTP/G);AR40(MOL/G);AR40(PPB);K(PPM);CA(PPM);SC(PPM);;;;TI(PPM);;;;V(PPM);CR(PPM);MN(PPM);FE(PPM);CO(PPM);NI(PPM);CU(PPM);ZN(PPM);GA(PPM);GE(PPM);AS(PPM);SE(PPM);BR(PPM);RB(PPM): altern. values or methods;;;;SR(PPM): altern. values or methods;;;;Y(PPM): altern. values or methods;;;;ZR(PPM): altern. values or methods;;;;NB(PPM): altern. values or methods;;;;MO(PPM): altern. values or methods;;;;AG(PPM);CD(PPM);IN(PPM);SN(PPM);SB(PPM);TE(PPM);CS(PPM);BA(PPM): altern. values or methods;;;;LA(PPM): altern. values or methods;;;;CE(PPM): altern. values or methods;;;;PR(PPM);ND(PPM): altern. values or methods;;;;SM(PPM): altern. values or methods;;;;EU(PPM);GD(PPM);TB(PPM);DY(PPM);HO(PPM);ER(PPM);TM(PPM);YB(PPM);LU(PPM);HF(PPM);TA(PPM);W(PPM);RE(PPM);AU(PPM);AU(PPB);HG(PPM);HG(PPB);TL(PPM);PB(PPM): altern. values or methods;;;;PB206(PPM);BI(PPM);TH(PPM): altern. values or methods;;;;U(PPM);ND143_ND144;ND143_ND144_INI;EPSILON_ND;EPSILON_ND_INI;SM147_ND144;SR87_SR86;SR87_SR86_INI;EPSILON_SR;EPSILON_SR_INI;RB87_SR86;PB206_PB204;PB206_PB204_INI;PB206_PB207;PB206_PB208;PB207_PB204;PB207_PB204_INI;PB207_PB206;PB208_PB204;PB208_PB204_INI;PB208_PB206;HF176_HF177;HF176_HF177_INI;EPSILON_HF_INI;LU176_HF177;YB176_HF177;AR36_AR39;AR36_AR40;AR37_AR39;AR38_AR39;AR39_AR40;AR40_AR36;AR40_AR39;PB206_U238;PB207_U235;PB208_TH232;TH232_PB204;TH232_U238;U235_PB204;U238_PB204;U238_PB206;D7LI(VS LSVEC);D18O(PER MIL);D18O(VS SMOW);D18O(VS VSMOW);D56FE(VS IRMM-014);D57FE(VS IRMM-014);DD(VS SMOW);ALBITE(MOL%);ANORTHITE(MOL%);CA OLIVINE(MOL%);ENSTATITE(MOL%);FAYALITE(MOL%);FORSTERITE(MOL%);FERROSILITE(MOL%);ORTHOCLASE(MOL%);TEPHROITE(MOL%);ULVOSPINEL(MOL%);WOLLASTONITE(MOL%);AGE(KA): altern. values or methods;;;;AGE(MA): altern. values or methods;;;;;;;;AGE_PB207_PB206(MA);AGE_PB207_U235(MA);AGE_PB206_U238(MA): altern. values or methods;;;;;;AGE_PB208_TH232(MA);
2015;[19878] WANG RUI (2015);samp. WR-13-83;;CENTRAL ASIAN FOLDBELT - CENOZOIC/QUATERNARY / CHINA - CENOZOIC/QUATERNARY / TIBET;JIADACUO, GANGDESE BELT;29.8361;85.7667;29.8361;85.7667;5180;5180;OUTCROP;;;SUBAERIAL;VOLCANIC ROCK;TRACHYDACITE;;;;;MIOCENE;;;;;MINERAL / COMPONENT (INCL. GROUNDMASS);ZIRCON;S2792_7@1;;;PRIMARY;;;;;;;;;;;;;;;;;;;;;;;;;;;;;;;;;;;;;;;;;;;;;;;;;;;;;;;;;;;;;;;;;;;;;;;;;;;;;;;;;;;;;;;;;;;;;;;;;;;;;;;;;;;;;;;;;;;;;;;;;;;;;;;;;;;;;;;;;;;;;;;;;;;;;;;;;;;;;;;;;;;;;;;;;;;;;;;1163.58914202707;SIMS;;;1125.93224624312;;;;;;;;;;;;;;;;;;;;;;;;;;;;;;;;;0.000980352467088036;;;;0.00272004186778411;;;;;;;;;;;;;;;;;;;;;;;;;;;;;;;;;;;;17.1868790149217;PB206_U238 AGE;17.2904074527382;PB206_U238 AGE;17.0671057464812;PB206_U238 AGE;17.8069302623636;
2015;[19878] WANG RUI (2015);samp. WR-13-83;;CENTRAL ASIAN FOLDBELT - CENOZOIC/QUATERNARY / CHINA - CENOZOIC/QUATERNARY / TIBET;JIADACUO, GANGDESE BELT;29.8361;85.7667;29.8361;85.7667;5180;5180;OUTCROP;;;SUBAERIAL;VOLCANIC ROCK;TRACHYDACITE;;;;;MIOCENE;;;;;MINERAL / COMPONENT (INCL. GROUNDMASS);ZIRCON;S2792_21@1;;;PRIMARY;;;;;;;;;;;;;;;;;;;;;;;;;;;;;;;;;;;;;;;;;;;;;;;;;;;;;;;;;;;;;;;;;;;;;;;;;;;;;;;;;;;;;;;;;;;;;;;;;;;;;;;;;;;;;;;;;;;;;;;;;;;;;;;;;;;;;;;;;;;;;;;;;;;;;;;;;;;;;;;;;;;;;;;;;;;;;;;794.562951146794;SIMS;;;925.577881685023;;;;;;;;;;;;;;;;;;;;;;;;;;;;;;;;;0.00100292909929526;;;;0.00273975160539272;;;;;;;;;;;;;;;;;;;;;;;;;;;;;;;;;;168.443549870781;;17.268321256576;PB206_U238 AGE;17.2037998507325;PB206_U238 AGE;17.229434391488;PB206_U238 AGE;17.5190655216096;
2015;[19878] WANG RUI (2015);samp. WR-13-83;;CENTRAL ASIAN FOLDBELT - CENOZOIC/QUATERNARY / CHINA - CENOZOIC/QUATERNARY / TIBET;JIADACUO, GANGDESE BELT;29.8361;85.7667;29.8361;85.7667;5180;5180;OUTCROP;;;SUBAERIAL;VOLCANIC ROCK;TRACHYDACITE;;;;;MIOCENE;;;;;MINERAL / COMPONENT (INCL. GROUNDMASS);ZIRCON;S2792_1@1;;;PRIMARY;;;;;;;;;;;;;;;;;;;;;;;;;;;;;;;;;;;;;;;;;;;;;;;;;;;;;;;;;;;;;;;;;;;;;;;;;;;;;;;;;;;;;;;;;;;;;;;;;;;;;;;;;;;;;;;;;;;;;;;;;;;;;;;;;;;;;;;;;;;;;;;;;;;;;;;;;;;;;;;;;;;;;;;;;;;;;;;950.708538807517;SIMS;;;768.894612313157;;;;;;;;;;;;;;;;;;;;;;;;;;;;;;;;;0.00097042211232061;;;;0.00276715673736079;;;;;;;;;;;;;;;;;;;;;;;;;;;;;;;;;;;;17.2734357959638;PB206_U238 AGE;17.3085712504108;PB206_U238 AGE;17.3829570168627;PB206_U238 AGE;16.8185205098878;
2015;[19878] WANG RUI (2015);samp. WR-13-83;;CENTRAL ASIAN FOLDBELT - CENOZOIC/QUATERNARY / CHINA - CENOZOIC/QUATERNARY / TIBET;JIADACUO, GANGDESE BELT;29.8361;85.7667;29.8361;85.7667;5180;5180;OUTCROP;;;SUBAERIAL;VOLCANIC ROCK;TRACHYDACITE;;;;;MIOCENE;;;;;MINERAL / COMPONENT (INCL. GROUNDMASS);ZIRCON;S2792_4@1;;;PRIMARY;;;;;;;;;;;;;;;;;;;;;;;;;;;;;;;;;;;;;;;;;;;;;;;;;;;;;;;;;;;;;;;;;;;;;;;;;;;;;;;;;;;;;;;;;;;;;;;;;;;;;;;;;;;;;;;;;;;;;;;;;;;;;;;;;;;;;;;;;;;;;;;;;;;;;;;;;;;;;;;;;;;;;;;;;;;;;;;348.798957141113;SIMS;;;562.806788532001;;;;;;;;;;;;;;;;;;;;;;;;;;;;;;;;;0.00109092442987539;;;;0.00276916520361032;;;;;;;;;;;;;;;;;;;;;;;;;;;;;;;;;;;;17.2794613206595;PB206_U238 AGE;17.3894588752639;PB206_U238 AGE;17.3733330042857;PB206_U238 AGE;16.408329235021;
2015;[19878] WANG RUI (2015);samp. WR-13-83;;CENTRAL ASIAN FOLDBELT - CENOZOIC/QUATERNARY / CHINA - CENOZOIC/QUATERNARY / TIBET;JIADACUO, GANGDESE BELT;29.8361;85.7667;29.8361;85.7667;5180;5180;OUTCROP;;;SUBAERIAL;VOLCANIC ROCK;TRACHYDACITE;;;;;MIOCENE;;;;;MINERAL / COMPONENT (INCL. GROUNDMASS);ZIRCON;S2792_11@1;;;PRIMARY;;;;;;;;;;;;;;;;;;;;;;;;;;;;;;;;;;;;;;;;;;;;;;;;;;;;;;;;;;;;;;;;;;;;;;;;;;;;;;;;;;;;;;;;;;;;;;;;;;;;;;;;;;;;;;;;;;;;;;;;;;;;;;;;;;;;;;;;;;;;;;;;;;;;;;;;;;;;;;;;;;;;;;;;;;;;;;;784.12303458497;SIMS;;;818.843036745049;;;;;;;;;;;;;;;;;;;;;;;;;;;;;;;;;0.000898227041737516;;;;0.00275224676929674;;;;;;;;;;;;;;;;;;;;;;;;;;;;;;;;;;66.1698212095384;;17.3543768442444;PB206_U238 AGE;17.3340824495874;PB206_U238 AGE;17.6419401384459;PB206_U238 AGE;15.7266154168386;
2015;[19878] WANG RUI (2015);samp. WR-13-83;;CENTRAL ASIAN FOLDBELT - CENOZOIC/QUATERNARY / CHINA - CENOZOIC/QUATERNARY / TIBET;JIADACUO, GANGDESE BELT;29.8361;85.7667;29.8361;85.7667;5180;5180;OUTCROP;;;SUBAERIAL;VOLCANIC ROCK;TRACHYDACITE;;;;;MIOCENE;;;;;MINERAL / COMPONENT (INCL. GROUNDMASS);ZIRCON;S2792_10@1;;;PRIMARY;;;;;;;;;;;;;;;;;;;;;;;;;;;;;;;;;;;;;;;;;;;;;;;;;;;;;;;;;;;;;;;;;;;;;;;;;;;;;;;;;;;;;;;;;;;;;;;;;;;;;;;;;;;;;;;;;;;;;;;;;;;;;;;;;;;;;;;;;;;;;;;;;;;;;;;;;;;;;;;;;;;;;;;;;;;;;;;590.303932730848;SIMS;;;847.735488082728;;;;;;;;;;;;;;;;;;;;;;;;;;;;;;;;;0.00106009863174083;;;;0.00279933447350848;;;;;;;;;;;;;;;;;;;;;;;;;;;;;;;;;;;;17.5724498921433;PB206_U238 AGE;17.6877515876088;PB206_U238 AGE;17.6044630710933;PB206_U238 AGE;17.3121194264567;
2015;[19878] WANG RUI (2015);samp. WR-13-83;;CENTRAL ASIAN FOLDBELT - CENOZOIC/QUATERNARY / CHINA - CENOZOIC/QUATERNARY / TIBET;JIADACUO, GANGDESE BELT;29.8361;85.7667;29.8361;85.7667;5180;5180;OUTCROP;;;SUBAERIAL;VOLCANIC ROCK;TRACHYDACITE;;;;;MIOCENE;;;;;MINERAL / COMPONENT (INCL. GROUNDMASS);ZIRCON;S2792_21@2;;;PRIMARY;;;;;;;;;;;;;;;;;;;;;;;;;;;;;;;;;;;;;;;;;;;;;;;;;;;;;;;;;;;;;;;;;;;;;;;;;;;;;;;;;;;;;;;;;;;;;;;;;;;;;;;;;;;;;;;;;;;;;;;;;;;;;;;;;;;;;;;;;;;;;;;;;;;;;;;;;;;;;;;;;;;;;;;;;;;;;;;1010.46896594257;SIMS;;;1137.60460097854;;;;;;;;;;;;;;;;;;;;;;;;;;;;;;;;;0.00109375426317252;;;;0.00284578835033721;;;;;;;;;;;;;;;;;;;;;;;;;;;;;;;;;;;;17.6040423543689;PB206_U238 AGE;17.6746744645853;PB206_U238 AGE;17.7082788968932;PB206_U238 AGE;16.9607882143158;
2015;[19878] WANG RUI (2015);samp. WR-13-83;;CENTRAL ASIAN FOLDBELT - CENOZOIC/QUATERNARY / CHINA - CENOZOIC/QUATERNARY / TIBET;JIADACUO, GANGDESE BELT;29.8361;85.7667;29.8361;85.7667;5180;5180;OUTCROP;;;SUBAERIAL;VOLCANIC ROCK;TRACHYDACITE;;;;;MIOCENE;;;;;MINERAL / COMPONENT (INCL. GROUNDMASS);ZIRCON;S2792_20@1;;;PRIMARY;;;;;;;;;;;;;;;;;;;;;;;;;;;;;;;;;;;;;;;;;;;;;;;;;;;;;;;;;;;;;;;;;;;;;;;;;;;;;;;;;;;;;;;;;;;;;;;;;;;;;;;;;;;;;;;;;;;;;;;;;;;;;;;;;;;;;;;;;;;;;;;;;;;;;;;;;;;;;;;;;;;;;;;;;;;;;;;1589.38317130731;SIMS;;;1134.29039592136;;;;;;;;;;;;;;;;;;;;;;;;;;;;;;;;;0.000978371288865648;;;;0.0028610303074479;;;;;;;;;;;;;;;;;;;;;;;;;;;;;;;;;;;;18.0841208840748;PB206_U238 AGE;18.1544129420084;PB206_U238 AGE;18.0375821372758;PB206_U238 AGE;18.2498420519479;
2015;[19878] WANG RUI (2015);samp. WR-13-83;;CENTRAL ASIAN FOLDBELT - CENOZOIC/QUATERNARY / CHINA - CENOZOIC/QUATERNARY / TIBET;JIADACUO, GANGDESE BELT;29.8361;85.7667;29.8361;85.7667;5180;5180;OUTCROP;;;SUBAERIAL;VOLCANIC ROCK;TRACHYDACITE;;;;;MIOCENE;;;;;MINERAL / COMPONENT (INCL. GROUNDMASS);ZIRCON;S2792_17@1;;;PRIMARY;;;;;;;;;;;;;;;;;;;;;;;;;;;;;;;;;;;;;;;;;;;;;;;;;;;;;;;;;;;;;;;;;;;;;;;;;;;;;;;;;;;;;;;;;;;;;;;;;;;;;;;;;;;;;;;;;;;;;;;;;;;;;;;;;;;;;;;;;;;;;;;;;;;;;;;;;;;;;;;;;;;;;;;;;;;;;;;438.646257985958;SIMS;;;601.081038753617;;;;;;;;;;;;;;;;;;;;;;;;;;;;;;;;;0.00116524216554536;;;;0.00290230890421893;;;;;;;;;;;;;;;;;;;;;;;;;;;;;;;;;;50.8047097907942;;18.1671318189268;PB206_U238 AGE;18.1529870968205;PB206_U238 AGE;18.0551531442907;PB206_U238 AGE;19.0351984929277;
2015;[19878] WANG RUI (2015);samp. WR-13-83;;CENTRAL ASIAN FOLDBELT - CENOZOIC/QUATERNARY / CHINA - CENOZOIC/QUATERNARY / TIBET;JIADACUO, GANGDESE BELT;29.8361;85.7667;29.8361;85.7667;5180;5180;OUTCROP;;;SUBAERIAL;VOLCANIC ROCK;TRACHYDACITE;;;;;MIOCENE;;;;;MINERAL / COMPONENT (INCL. GROUNDMASS);ZIRCON;S2792_12@1;;;PRIMARY;;;;;;;;;;;;;;;;;;;;;;;;;;;;;;;;;;;;;;;;;;;;;;;;;;;;;;;;;;;;;;;;;;;;;;;;;;;;;;;;;;;;;;;;;;;;;;;;;;;;;;;;;;;;;;;;;;;;;;;;;;;;;;;;;;;;;;;;;;;;;;;;;;;;;;;;;;;;;;;;;;;;;;;;;;;;;;;1217.73067639691;SIMS;;;1734.09207905849;;;;;;;;;;;;;;;;;;;;;;;;;;;;;;;;;0.00101821468659335;;;;0.00286052583744923;;;;;;;;;;;;;;;;;;;;;;;;;;;;;;;;;;;;18.2385125498351;PB206_U238 AGE;18.2507430160907;PB206_U238 AGE;18.1471391583854;PB206_U238 AGE;18.9776864882934;
2015;[19878] WANG RUI (2015);samp. WR-13-83;;CENTRAL ASIAN FOLDBELT - CENOZOIC/QUATERNARY / CHINA - CENOZOIC/QUATERNARY / TIBET;JIADACUO, GANGDESE BELT;29.8361;85.7667;29.8361;85.7667;5180;5180;OUTCROP;;;SUBAERIAL;VOLCANIC ROCK;TRACHYDACITE;;;;;MIOCENE;;;;;MINERAL / COMPONENT (INCL. GROUNDMASS);ZIRCON;S2792_6@1;;;PRIMARY;;;;;;;;;;;;;;;;;;;;;;;;;;;;;;;;;;;;;;;;;;;;;;;;;;;;;;;;;;;;;;;;;;;;;;;;;;;;;;;;;;;;;;;;;;;;;;;;;;;;;;;;;;;;;;;;;;;;;;;;;;;;;;;;;;;;;;;;;;;;;;;;;;;;;;;;;;;;;;;;;;;;;;;;;;;;;;;224.472499696873;SIMS;;;483.612480971514;;;;;;;;;;;;;;;;;;;;;;;;;;;;;;;;;0.00366302619808692;;;;0.0108203030251968;;;;;;;;;;;;;;;;;;;;;;;;;;;;;;;;;;;;68.8136116488429;PB206_U238 AGE;69.0362373509103;PB206_U238 AGE;69.0244680952795;PB206_U238 AGE;66.1121379963037;
2015;[19878] WANG RUI (2015);samp. WR-13-14;;CENTRAL ASIAN FOLDBELT - CENOZOIC/QUATERNARY / CHINA - CENOZOIC/QUATERNARY / TIBET;SUOJIN, GANGDESE BELT;29.6822;89.5844;29.6822;89.5844;4336;4336;OUTCROP;;;SUBAERIAL;VOLCANIC ROCK;TRACHYDACITE;;;;;MIOCENE;;;;;MINERAL / COMPONENT (INCL. GROUNDMASS);ZIRCON;S2794_4@1_2;;;PRIMARY;;;;;;;;;;;;;;;;;;;;;;;;;;;;;;;;;;;;;;;;;;;;;;;;;;;;;;;;;;;;;;;;;;;;;;;;;;;;;;;;;;;;;;;;;;;;;;;;;;;;;;;;;;;;;;;;;;;;;;;;;;;;;;;;;;;;;;;;;;;;;;;;;;;;;;;;;;;;;;;;;;;;;;;;;;;;;;;342.943367407753;SIMS;;;687.942125542955;;;;;;;;;;;;;;;;;;;;;;;;;;;;;;;;;0.000805115733131686;;;;0.00183770722764727;;;;;;;;;;;;;;;;;;;;;;;;;;;;;;;;;;;;11.3907994512763;PB206_U238 AGE;11.4637094440062;PB206_U238 AGE;11.4598828462257;PB206_U238 AGE;10.5776578230774;
2015;[19878] WANG RUI (2015);samp. WR-13-14;;CENTRAL ASIAN FOLDBELT - CENOZOIC/QUATERNARY / CHINA - CENOZOIC/QUATERNARY / TIBET;SUOJIN, GANGDESE BELT;29.6822;89.5844;29.6822;89.5844;4336;4336;OUTCROP;;;SUBAERIAL;VOLCANIC ROCK;TRACHYDACITE;;;;;MIOCENE;;;;;MINERAL / COMPONENT (INCL. GROUNDMASS);ZIRCON;S2794_7@2;;;PRIMARY;;;;;;;;;;;;;;;;;;;;;;;;;;;;;;;;;;;;;;;;;;;;;;;;;;;;;;;;;;;;;;;;;;;;;;;;;;;;;;;;;;;;;;;;;;;;;;;;;;;;;;;;;;;;;;;;;;;;;;;;;;;;;;;;;;;;;;;;;;;;;;;;;;;;;;;;;;;;;;;;;;;;;;;;;;;;;;;564.921373661205;SIMS;;;923.048268234752;;;;;;;;;;;;;;;;;;;;;;;;;;;;;;;;;0.000787589669048146;;;;0.00189553798574162;;;;;;;;;;;;;;;;;;;;;;;;;;;;;;;;;;;;11.6844907214799;PB206_U238 AGE;11.7753092056076;PB206_U238 AGE;11.8144442659704;PB206_U238 AGE;10.4618527572601;
2015;[19878] WANG RUI (2015);samp. WR-13-14;;CENTRAL ASIAN FOLDBELT - CENOZOIC/QUATERNARY / CHINA - CENOZOIC/QUATERNARY / TIBET;SUOJIN, GANGDESE BELT;29.6822;89.5844;29.6822;89.5844;4336;4336;OUTCROP;;;SUBAERIAL;VOLCANIC ROCK;TRACHYDACITE;;;;;MIOCENE;;;;;MINERAL / COMPONENT (INCL. GROUNDMASS);ZIRCON;S2794_7@1;;;PRIMARY;;;;;;;;;;;;;;;;;;;;;;;;;;;;;;;;;;;;;;;;;;;;;;;;;;;;;;;;;;;;;;;;;;;;;;;;;;;;;;;;;;;;;;;;;;;;;;;;;;;;;;;;;;;;;;;;;;;;;;;;;;;;;;;;;;;;;;;;;;;;;;;;;;;;;;;;;;;;;;;;;;;;;;;;;;;;;;;232.295357500671;SIMS;;;248.061208701311;;;;;;;;;;;;;;;;;;;;;;;;;;;;;;;;;0.000989435871739902;;;;0.00210809538037079;;;;;;;;;;;;;;;;;;;;;;;;;;;;;;;;;;;;12.0834615019745;PB206_U238 AGE;12.286590138682;PB206_U238 AGE;12.4711903994742;PB206_U238 AGE;9.83338836693604;
2015;[19878] WANG RUI (2015);samp. WR-13-14;;CENTRAL ASIAN FOLDBELT - CENOZOIC/QUATERNARY / CHINA - CENOZOIC/QUATERNARY / TIBET;SUOJIN, GANGDESE BELT;29.6822;89.5844;29.6822;89.5844;4336;4336;OUTCROP;;;SUBAERIAL;VOLCANIC ROCK;TRACHYDACITE;;;;;MIOCENE;;;;;MINERAL / COMPONENT (INCL. GROUNDMASS);ZIRCON;S2794_10@1;;;PRIMARY;;;;;;;;;;;;;;;;;;;;;;;;;;;;;;;;;;;;;;;;;;;;;;;;;;;;;;;;;;;;;;;;;;;;;;;;;;;;;;;;;;;;;;;;;;;;;;;;;;;;;;;;;;;;;;;;;;;;;;;;;;;;;;;;;;;;;;;;;;;;;;;;;;;;;;;;;;;;;;;;;;;;;;;;;;;;;;;130.899390406519;SIMS;;;519.831885712272;;;;;;;;;;;;;;;;;;;;;;;;;;;;;;;;;0.00170142509355893;;;;0.0019995525894368;;;;;;;;;;;;;;;;;;;;;;;;;;;;;;;;;;;;12.132364939548;PB206_U238 AGE;12.229963402666;PB206_U238 AGE;11.9932966908466;PB206_U238 AGE;15.5187729912532;
2015;[19878] WANG RUI (2015);samp. WR-13-14;;CENTRAL ASIAN FOLDBELT - CENOZOIC/QUATERNARY / CHINA - CENOZOIC/QUATERNARY / TIBET;SUOJIN, GANGDESE BELT;29.6822;89.5844;29.6822;89.5844;4336;4336;OUTCROP;;;SUBAERIAL;VOLCANIC ROCK;TRACHYDACITE;;;;;MIOCENE;;;;;MINERAL / COMPONENT (INCL. GROUNDMASS);ZIRCON;S2794_1@1;;;PRIMARY;;;;;;;;;;;;;;;;;;;;;;;;;;;;;;;;;;;;;;;;;;;;;;;;;;;;;;;;;;;;;;;;;;;;;;;;;;;;;;;;;;;;;;;;;;;;;;;;;;;;;;;;;;;;;;;;;;;;;;;;;;;;;;;;;;;;;;;;;;;;;;;;;;;;;;;;;;;;;;;;;;;;;;;;;;;;;;;607.54326587175;SIMS;;;1304.64411990232;;;;;;;;;;;;;;;;;;;;;;;;;;;;;;;;;0.000802519944805838;;;;0.00193527729559456;;;;;;;;;;;;;;;;;;;;;;;;;;;;;;;;;;23.1567296624029;;12.2196138285347;PB206_U238 AGE;12.2164554883829;PB206_U238 AGE;12.1680091511733;PB206_U238 AGE;12.8753678933351;
2015;[19878] WANG RUI (2015);samp. WR-13-14;;CENTRAL ASIAN FOLDBELT - CENOZOIC/QUATERNARY / CHINA - CENOZOIC/QUATERNARY / TIBET;SUOJIN, GANGDESE BELT;29.6822;89.5844;29.6822;89.5844;4336;4336;OUTCROP;;;SUBAERIAL;VOLCANIC ROCK;TRACHYDACITE;;;;;MIOCENE;;;;;MINERAL / COMPONENT (INCL. GROUNDMASS);ZIRCON;S2794_12@1;;;PRIMARY;;;;;;;;;;;;;;;;;;;;;;;;;;;;;;;;;;;;;;;;;;;;;;;;;;;;;;;;;;;;;;;;;;;;;;;;;;;;;;;;;;;;;;;;;;;;;;;;;;;;;;;;;;;;;;;;;;;;;;;;;;;;;;;;;;;;;;;;;;;;;;;;;;;;;;;;;;;;;;;;;;;;;;;;;;;;;;;765.818772239747;SIMS;;;1427.9597550256;;;;;;;;;;;;;;;;;;;;;;;;;;;;;;;;;0.000782711934489402;;;;0.00193439673631793;;;;;;;;;;;;;;;;;;;;;;;;;;;;;;;;;;52.4344575206966;;12.228855907431;PB206_U238 AGE;12.2171428513962;PB206_U238 AGE;12.14962995732;PB206_U238 AGE;13.0921780878386;
2015;[19878] WANG RUI (2015);samp. WR-13-14;;CENTRAL ASIAN FOLDBELT - CENOZOIC/QUATERNARY / CHINA - CENOZOIC/QUATERNARY / TIBET;SUOJIN, GANGDESE BELT;29.6822;89.5844;29.6822;89.5844;4336;4336;OUTCROP;;;SUBAERIAL;VOLCANIC ROCK;TRACHYDACITE;;;;;MIOCENE;;;;;MINERAL / COMPONENT (INCL. GROUNDMASS);ZIRCON;S2794_2@1;;;PRIMARY;;;;;;;;;;;;;;;;;;;;;;;;;;;;;;;;;;;;;;;;;;;;;;;;;;;;;;;;;;;;;;;;;;;;;;;;;;;;;;;;;;;;;;;;;;;;;;;;;;;;;;;;;;;;;;;;;;;;;;;;;;;;;;;;;;;;;;;;;;;;;;;;;;;;;;;;;;;;;;;;;;;;;;;;;;;;;;;547.984975103241;SIMS;;;607.025822087444;;;;;;;;;;;;;;;;;;;;;;;;;;;;;;;;;0.000764080091470924;;;;0.00201508817898591;;;;;;;;;;;;;;;;;;;;;;;;;;;;;;;;;;;;12.2407033287503;PB206_U238 AGE;12.4137007205022;PB206_U238 AGE;12.571154959433;PB206_U238 AGE;10.2381760760889;
2015;[19878] WANG RUI (2015);samp. WR-13-83;;CENTRAL ASIAN FOLDBELT - CENOZOIC/QUATERNARY / CHINA - CENOZOIC/QUATERNARY / TIBET;JIADACUO, GANGDESE BELT;29.8361;85.7667;29.8361;85.7667;5180;5180;OUTCROP;;;SUBAERIAL;VOLCANIC ROCK;TRACHYDACITE;;;;;MIOCENE;;;;;MINERAL / COMPONENT (INCL. GROUNDMASS);ZIRCON;;;;PRIMARY;;;;;;;;;;;;;;;;;;;;;;;;;;;;;;;;;;;;;;;;;;;;;;;;;;;;;;;;;;;;;;;;;;;;;;;;;;;;;;;;;;;;;;;;;;;;;;;;;;;;;;;;;;;;;;;;;;;;;;;;;;;;;;;;;;;;;;;;;;;;;;;;;;;;;;;;;;;;;;;;;;;;;;;;;;;;;;;;;;;;;;;;;;;;;;;;;;;;;;;;0.282673290916124;;;0.00070722844895382;0.0147219683052705;;;;;;;;;;;;;;;;;;;;;;;;;;;;;;;;;;;;;;;;;;;;;;;;;;;;;;;
2015;[19878] WANG RUI (2015);samp. WR-13-83;;CENTRAL ASIAN FOLDBELT - CENOZOIC/QUATERNARY / CHINA - CENOZOIC/QUATERNARY / TIBET;JIADACUO, GANGDESE BELT;29.8361;85.7667;29.8361;85.7667;5180;5180;OUTCROP;;;SUBAERIAL;VOLCANIC ROCK;TRACHYDACITE;;;;;MIOCENE;;;;;MINERAL / COMPONENT (INCL. GROUNDMASS);ZIRCON;;;;PRIMARY;;;;;;;;;;;;;;;;;;;;;;;;;;;;;;;;;;;;;;;;;;;;;;;;;;;;;;;;;;;;;;;;;;;;;;;;;;;;;;;;;;;;;;;;;;;;;;;;;;;;;;;;;;;;;;;;;;;;;;;;;;;;;;;;;;;;;;;;;;;;;;;;;;;;;;;;;;;;;;;;;;;;;;;;;;;;;;;;;;;;;;;;;;;;;;;;;;;;;;;;0.282757251994825;;;0.00035826290796139;0.00804682128070065;;;;;;;;;;;;;;;;;;;;;;;;;;;;;;;;;;;;;;;;;;;;;;;;;;;;;;;
2015;[19878] WANG RUI (2015);samp. WR-13-83;;CENTRAL ASIAN FOLDBELT - CENOZOIC/QUATERNARY / CHINA - CENOZOIC/QUATERNARY / TIBET;JIADACUO, GANGDESE BELT;29.8361;85.7667;29.8361;85.7667;5180;5180;OUTCROP;;;SUBAERIAL;VOLCANIC ROCK;TRACHYDACITE;;;;;MIOCENE;;;;;MINERAL / COMPONENT (INCL. GROUNDMASS);ZIRCON;;;;PRIMARY;;;;;;;;;;;;;;;;;;;;;;;;;;;;;;;;;;;;;;;;;;;;;;;;;;;;;;;;;;;;;;;;;;;;;;;;;;;;;;;;;;;;;;;;;;;;;;;;;;;;;;;;;;;;;;;;;;;;;;;;;;;;;;;;;;;;;;;;;;;;;;;;;;;;;;;;;;;;;;;;;;;;;;;;;;;;;;;;;;;;;;;;;;;;;;;;;;;;;;;;0.282746608621339;;;0.000787571258874934;0.0212068981242909;;;;;;;;;;;;;;;;;;;;;;;;;;;;;;;;;;;;;;;;;;;;;;;;;;;;;;;
2015;[19878] WANG RUI (2015);samp. WR-13-83;;CENTRAL ASIAN FOLDBELT - CENOZOIC/QUATERNARY / CHINA - CENOZOIC/QUATERNARY / TIBET;JIADACUO, GANGDESE BELT;29.8361;85.7667;29.8361;85.7667;5180;5180;OUTCROP;;;SUBAERIAL;VOLCANIC ROCK;TRACHYDACITE;;;;;MIOCENE;;;;;MINERAL / COMPONENT (INCL. GROUNDMASS);ZIRCON;;;;PRIMARY;;;;;;;;;;;;;;;;;;;;;;;;;;;;;;;;;;;;;;;;;;;;;;;;;;;;;;;;;;;;;;;;;;;;;;;;;;;;;;;;;;;;;;;;;;;;;;;;;;;;;;;;;;;;;;;;;;;;;;;;;;;;;;;;;;;;;;;;;;;;;;;;;;;;;;;;;;;;;;;;;;;;;;;;;;;;;;;;;;;;;;;;;;;;;;;;;;;;;;;;0.282661921445656;;;0.000441097596330139;0.00929097823684996;;;;;;;;;;;;;;;;;;;;;;;;;;;;;;;;;;;;;;;;;;;;;;;;;;;;;;;
2015;[19878] WANG RUI (2015);samp. WR-13-83;;CENTRAL ASIAN FOLDBELT - CENOZOIC/QUATERNARY / CHINA - CENOZOIC/QUATERNARY / TIBET;JIADACUO, GANGDESE BELT;29.8361;85.7667;29.8361;85.7667;5180;5180;OUTCROP;;;SUBAERIAL;VOLCANIC ROCK;TRACHYDACITE;;;;;MIOCENE;;;;;MINERAL / COMPONENT (INCL. GROUNDMASS);ZIRCON;;;;PRIMARY;;;;;;;;;;;;;;;;;;;;;;;;;;;;;;;;;;;;;;;;;;;;;;;;;;;;;;;;;;;;;;;;;;;;;;;;;;;;;;;;;;;;;;;;;;;;;;;;;;;;;;;;;;;;;;;;;;;;;;;;;;;;;;;;;;;;;;;;;;;;;;;;;;;;;;;;;;;;;;;;;;;;;;;;;;;;;;;;;;;;;;;;;;;;;;;;;;;;;;;;0.282672477236459;;;0.000529488110115987;0.0113391291906643;;;;;;;;;;;;;;;;;;;;;;;;;;;;;;;;;;;;;;;;;;;;;;;;;;;;;;;