Year;CITATION;SAMPLE NAME;UNIQUE_ID;LOCATION;LOCATION COMMENT;LATITUDE (MIN.);LONGITUDE (MIN.);LATITUDE (MAX.);LONGITUDE (MAX.);ELEVATION (MIN.);ELEVATION (MAX.);SAMPLING TECHNIQUE;DRILLING DEPTH (MIN.);DRILLING DEPTH (MAX.);LAND/SEA (SAMPLING);ROCK TYPE;ROCK NAME;ROCK TEXTURE;SAMPLE COMMENT;AGE (MIN.);AGE (MAX.);GEOLOGICAL AGE;GEOLOGICAL AGE PREFIX;ERUPTION YEAR;ALTERATION;ALTERATION TYPE;TYPE OF MATERIAL;MINERAL / COMPONENT;SPOT (MINERAL);CRYSTAL;RIM / CORE (MINERAL GRAINS);PRIMARY/SECONDARY;INCLUSION TYPE;SPOT (INCLUSION);MINERAL (INCLUSION);RIM / CORE (INCLUSION);HOSTMINERAL (INCLUSION);HEATING;HEATING TEMPERATURE (?C);SIO2(WT%);TIO2(WT%);ZRO2(WT%);B2O3(WT%);AL2O3(WT%);CR2O3(WT%);LA2O3(WT%);CE2O3(WT%);Y2O3(WT%);V2O3(WT%);NB2O3(WT%);TA2O5(WT%);WO3(WT%);FE2O3T(WT%);FE2O3(WT%);FEOT(WT%);FEO(WT%);CAO(WT%);MGO(WT%);MNO(WT%);BAO(WT%);SRO(WT%);NIO(WT%);ZNO(WT%);CS2O(WT%);RB2O(WT%);K2O(WT%);;;;NA2O(WT%);P2O5(WT%);H2O(WT%);;;;H2OP(WT%);H2OM(WT%);CO2(WT%);C(WT%);F(WT%);CL(WT%);SO2(WT%);SO3(WT%);S(WT%);LOI(WT%);AL(WT%);TI(WT%);FE(WT%);MG(WT%);CA(WT%);K(WT%);NA(WT%);LI(PPM);BE(PPM);B(PPM);C(PPM);F(PPM);NA(PPM);MG(PPM);AL(PPM);P(PPM);S(PPM);CL(PPM);AR40(AT/G);AR40(CCMSTP/G);AR40(MOL/G);AR40(PPB);K(PPM);CA(PPM);SC(PPM);;;;TI(PPM);;;;V(PPM);CR(PPM);MN(PPM);FE(PPM);CO(PPM);NI(PPM);CU(PPM);ZN(PPM);GA(PPM);GE(PPM);AS(PPM);SE(PPM);BR(PPM);RB(PPM): altern. values or methods;;;;SR(PPM): altern. values or methods;;;;Y(PPM): altern. values or methods;;;;ZR(PPM): altern. values or methods;;;;NB(PPM): altern. values or methods;;;;MO(PPM): altern. values or methods;;;;AG(PPM);CD(PPM);IN(PPM);SN(PPM);SB(PPM);TE(PPM);CS(PPM);BA(PPM): altern. values or methods;;;;LA(PPM): altern. values or methods;;;;CE(PPM): altern. values or methods;;;;PR(PPM);ND(PPM): altern. values or methods;;;;SM(PPM): altern. values or methods;;;;EU(PPM);GD(PPM);TB(PPM);DY(PPM);HO(PPM);ER(PPM);TM(PPM);YB(PPM);LU(PPM);HF(PPM);TA(PPM);W(PPM);RE(PPM);AU(PPM);AU(PPB);HG(PPM);HG(PPB);TL(PPM);PB(PPM): altern. values or methods;;;;PB206(PPM);BI(PPM);TH(PPM): altern. values or methods;;;;U(PPM);ND143_ND144;ND143_ND144_INI;EPSILON_ND;EPSILON_ND_INI;SM147_ND144;SR87_SR86;SR87_SR86_INI;EPSILON_SR;EPSILON_SR_INI;RB87_SR86;PB206_PB204;PB206_PB204_INI;PB206_PB207;PB206_PB208;PB207_PB204;PB207_PB204_INI;PB207_PB206;PB208_PB204;PB208_PB204_INI;PB208_PB206;HF176_HF177;HF176_HF177_INI;EPSILON_HF_INI;LU176_HF177;YB176_HF177;AR36_AR39;AR36_AR40;AR37_AR39;AR38_AR39;AR39_AR40;AR40_AR36;AR40_AR39;PB206_U238;PB207_U235;PB208_TH232;TH232_PB204;TH232_U238;U235_PB204;U238_PB204;U238_PB206;D7LI(VS LSVEC);D18O(PER MIL);D18O(VS SMOW);D18O(VS VSMOW);D56FE(VS IRMM-014);D57FE(VS IRMM-014);DD(VS SMOW);ALBITE(MOL%);ANORTHITE(MOL%);CA OLIVINE(MOL%);ENSTATITE(MOL%);FAYALITE(MOL%);FORSTERITE(MOL%);FERROSILITE(MOL%);ORTHOCLASE(MOL%);TEPHROITE(MOL%);ULVOSPINEL(MOL%);WOLLASTONITE(MOL%);AGE(KA): altern. values or methods;;;;AGE(MA): altern. values or methods;;;;;;;;AGE_PB207_PB206(MA);AGE_PB207_U235(MA);AGE_PB206_U238(MA): altern. values or methods;;;;;;AGE_PB208_TH232(MA);
1989;[9950] MUSSELWHITE D. S. (1989);samp. 16;;BASIN AND RANGE - GREAT BASIN / BASIN AND RANGE / CALIFORNIA / WOODS MOUNTAINS VOLCANIC CENTER;;35;-115.25;35.25;-115.4;;;OUTCROP;;;SUBAERIAL;VOLCANIC ROCK;TRACHYDACITE;;;15800000;15800000;MIOCENE;;;;;WHOLE ROCK;;;;;;;;;;;;;61.79;1.21;;;17.38;;;;;;;;;;5.35;;;3.2;2.09;0.11;;;;;;;3.95;XRF;;;3.91;0.27;;;;;;;;;;;;;;2.13;;;;;;;;;;;;;;;;;;;;;;;;;13.25;INAA;;;;;;;;9.6;;;;;;;;;;;;;;;;457.7;TIMS_ID;;;;;;;540;INAA;;;;;;;;;;;;;;;0.28;;;;;;;50;INAA;;;86;INAA;;;;46.4;INAA;46.98;TIMS_ID;7.9;INAA;;;2.84;;0.85;0;;;1;2;0.33;8;0.76;;;;;;;;;;;;;;5.1;INAA;;;0.806;0.51149;;;;0.1053;0.70882;;;;0.79;;;;;;;;;;;;;;;;;;;;;;;;;;;;;;;;;;;;;;;;;;;;;;;;;;;;;;;;;;;;;;;;;;;;;;
2007;[9959] PLATZ T. (2007);samp. SD21;;NEW ZEALAND / COROMANDEL-TAUPO / TAUPO VOLCANIC ZONE / EGMONT (MOUNT TARANAKI);STRATOVOLCANO, BURRELL LAPILLI, MOUNT TARANAKI (EGMONT);-39.2;173.85;-39.35;174.1;;;OUTCROP;;;SUBAERIAL;VOLCANIC ROCK;TRACHYDACITE;;GREY, UNIT 1;;;HOLOCENE;;1655;;;MINERAL / COMPONENT (INCL. GROUNDMASS);GLASS;;;;PRIMARY;;;;;;;;65.58;0.66;;;17.28;;;;;;;;;;;;2.87;3.17;1.04;0;;;;;;;4.47;EMP (EPMA);;;4.75;;;;;;;;;;;0.18;;;;;;;;;;;;;;;;;;;;;;;;;;;;;;;;;;;;;;;;;;;;;;;;;;;;;;;;;;;;;;;;;;;;;;;;;;;;;;;;;;;;;;;;;;;;;;;;;;;;;;;;;;;;;;;;;;;;;;;;;;;;;;;;;;;;;;;;;;;;;;;;;;;;;;;;;;;;;;;;;;;;;;;;;;;;;;;;;;;;;;;;;;;;;;;;;;;;;;;;;;;;;;;;;;
2007;[9959] PLATZ T. (2007);samp. SD21;;NEW ZEALAND / COROMANDEL-TAUPO / TAUPO VOLCANIC ZONE / EGMONT (MOUNT TARANAKI);STRATOVOLCANO, BURRELL LAPILLI, MOUNT TARANAKI (EGMONT);-39.2;173.85;-39.35;174.1;;;OUTCROP;;;SUBAERIAL;VOLCANIC ROCK;TRACHYDACITE;;GREY, UNIT 1;;;HOLOCENE;;1655;;;MINERAL / COMPONENT (INCL. GROUNDMASS);GLASS;;;;PRIMARY;;;;;;;;65.21;0.47;;;17.64;;;;;;;;;;;;2.86;3.64;0.79;0.11;;;;;;;4.28;EMP (EPMA);;;4.73;;;;;;;;;;;0.26;;;;;;;;;;;;;;;;;;;;;;;;;;;;;;;;;;;;;;;;;;;;;;;;;;;;;;;;;;;;;;;;;;;;;;;;;;;;;;;;;;;;;;;;;;;;;;;;;;;;;;;;;;;;;;;;;;;;;;;;;;;;;;;;;;;;;;;;;;;;;;;;;;;;;;;;;;;;;;;;;;;;;;;;;;;;;;;;;;;;;;;;;;;;;;;;;;;;;;;;;;;;;;;;;;
2007;[9959] PLATZ T. (2007);samp. SD23A;;NEW ZEALAND / COROMANDEL-TAUPO / TAUPO VOLCANIC ZONE / EGMONT (MOUNT TARANAKI);STRATOVOLCANO, BURRELL LAPILLI, MOUNT TARANAKI (EGMONT);-39.2;173.85;-39.35;174.1;;;OUTCROP;;;SUBAERIAL;VOLCANIC ROCK;TRACHYDACITE;;BROWN, UNIT 2;;;HOLOCENE;;1655;;;MINERAL / COMPONENT (INCL. GROUNDMASS);GLASS;;;;PRIMARY;;;;;;;;68.31;0.34;;;15.76;;;;;;;;;;;;2.54;2.31;0.63;0.07;;;;;;;5.26;EMP (EPMA);;;4.45;;;;;;;;;;;0.34;;;;;;;;;;;;;;;;;;;;;;;;;;;;;;;;;;;;;;;;;;;;;;;;;;;;;;;;;;;;;;;;;;;;;;;;;;;;;;;;;;;;;;;;;;;;;;;;;;;;;;;;;;;;;;;;;;;;;;;;;;;;;;;;;;;;;;;;;;;;;;;;;;;;;;;;;;;;;;;;;;;;;;;;;;;;;;;;;;;;;;;;;;;;;;;;;;;;;;;;;;;;;;;;;;
2007;[9959] PLATZ T. (2007);samp. SD25A;;NEW ZEALAND / COROMANDEL-TAUPO / TAUPO VOLCANIC ZONE / EGMONT (MOUNT TARANAKI);STRATOVOLCANO, BURRELL LAPILLI, MOUNT TARANAKI (EGMONT);-39.2;173.85;-39.35;174.1;;;OUTCROP;;;SUBAERIAL;VOLCANIC ROCK;TRACHYDACITE;;BROWN, UNIT 2;;;HOLOCENE;;1655;;;MINERAL / COMPONENT (INCL. GROUNDMASS);GLASS;;;;PRIMARY;;;;;;;;66.85;0.6;;;16.88;;;;;;;;;;;;2.69;2.65;0.85;0;;;;;;;5.07;EMP (EPMA);;;4.07;;;;;;;;;;;0.33;;;;;;;;;;;;;;;;;;;;;;;;;;;;;;;;;;;;;;;;;;;;;;;;;;;;;;;;;;;;;;;;;;;;;;;;;;;;;;;;;;;;;;;;;;;;;;;;;;;;;;;;;;;;;;;;;;;;;;;;;;;;;;;;;;;;;;;;;;;;;;;;;;;;;;;;;;;;;;;;;;;;;;;;;;;;;;;;;;;;;;;;;;;;;;;;;;;;;;;;;;;;;;;;;;
2007;[9959] PLATZ T. (2007);samp. SD25A;;NEW ZEALAND / COROMANDEL-TAUPO / TAUPO VOLCANIC ZONE / EGMONT (MOUNT TARANAKI);STRATOVOLCANO, BURRELL LAPILLI, MOUNT TARANAKI (EGMONT);-39.2;173.85;-39.35;174.1;;;OUTCROP;;;SUBAERIAL;VOLCANIC ROCK;TRACHYDACITE;;BROWN, UNIT 2;;;HOLOCENE;;1655;;;MINERAL / COMPONENT (INCL. GROUNDMASS);GLASS;;;;PRIMARY;;;;;;;;67.07;0.44;;;16.37;;;;;;;;;;;;2.68;2.27;0.91;0.2;;;;;;;5.11;EMP (EPMA);;;4.72;;;;;;;;;;;0.24;;;;;;;;;;;;;;;;;;;;;;;;;;;;;;;;;;;;;;;;;;;;;;;;;;;;;;;;;;;;;;;;;;;;;;;;;;;;;;;;;;;;;;;;;;;;;;;;;;;;;;;;;;;;;;;;;;;;;;;;;;;;;;;;;;;;;;;;;;;;;;;;;;;;;;;;;;;;;;;;;;;;;;;;;;;;;;;;;;;;;;;;;;;;;;;;;;;;;;;;;;;;;;;;;;
2007;[9959] PLATZ T. (2007);samp. SD31A;;NEW ZEALAND / COROMANDEL-TAUPO / TAUPO VOLCANIC ZONE / EGMONT (MOUNT TARANAKI);STRATOVOLCANO, BURRELL LAPILLI, MOUNT TARANAKI (EGMONT);-39.2;173.85;-39.35;174.1;;;OUTCROP;;;SUBAERIAL;VOLCANIC ROCK;TRACHYDACITE;;GREY, UNIT 3;;;HOLOCENE;;1655;;;MINERAL / COMPONENT (INCL. GROUNDMASS);GLASS;;;;PRIMARY;;;;;;;;65.11;0.6;;;17.1;;;;;;;;;;;;3.33;3.27;1.02;0.14;;;;;;;4.72;EMP (EPMA);;;4.5;;;;;;;;;;;0.21;;;;;;;;;;;;;;;;;;;;;;;;;;;;;;;;;;;;;;;;;;;;;;;;;;;;;;;;;;;;;;;;;;;;;;;;;;;;;;;;;;;;;;;;;;;;;;;;;;;;;;;;;;;;;;;;;;;;;;;;;;;;;;;;;;;;;;;;;;;;;;;;;;;;;;;;;;;;;;;;;;;;;;;;;;;;;;;;;;;;;;;;;;;;;;;;;;;;;;;;;;;;;;;;;;
2007;[9959] PLATZ T. (2007);samp. SD31A;;NEW ZEALAND / COROMANDEL-TAUPO / TAUPO VOLCANIC ZONE / EGMONT (MOUNT TARANAKI);STRATOVOLCANO, BURRELL LAPILLI, MOUNT TARANAKI (EGMONT);-39.2;173.85;-39.35;174.1;;;OUTCROP;;;SUBAERIAL;VOLCANIC ROCK;TRACHYDACITE;;GREY, UNIT 3;;;HOLOCENE;;1655;;;MINERAL / COMPONENT (INCL. GROUNDMASS);GLASS;;;;PRIMARY;;;;;;;;65.65;0.58;;;16.76;;;;;;;;;;;;3.3;2.89;0.98;0.21;;;;;;;4.76;EMP (EPMA);;;4.58;;;;;;;;;;;0.29;;;;;;;;;;;;;;;;;;;;;;;;;;;;;;;;;;;;;;;;;;;;;;;;;;;;;;;;;;;;;;;;;;;;;;;;;;;;;;;;;;;;;;;;;;;;;;;;;;;;;;;;;;;;;;;;;;;;;;;;;;;;;;;;;;;;;;;;;;;;;;;;;;;;;;;;;;;;;;;;;;;;;;;;;;;;;;;;;;;;;;;;;;;;;;;;;;;;;;;;;;;;;;;;;;
2007;[9959] PLATZ T. (2007);samp. SD32A;;NEW ZEALAND / COROMANDEL-TAUPO / TAUPO VOLCANIC ZONE / EGMONT (MOUNT TARANAKI);STRATOVOLCANO, BURRELL LAPILLI, MOUNT TARANAKI (EGMONT);-39.2;173.85;-39.35;174.1;;;OUTCROP;;;SUBAERIAL;VOLCANIC ROCK;TRACHYDACITE;;GREY, UNIT 3;;;HOLOCENE;;1655;;;MINERAL / COMPONENT (INCL. GROUNDMASS);GLASS;;;;PRIMARY;;;;;;;;67.64;0.59;;;16.8;;;;;;;;;;;;2.79;2.95;0.85;0.05;;;;;;;4.5;EMP (EPMA);;;3.61;;;;;;;;;;;0.23;;;;;;;;;;;;;;;;;;;;;;;;;;;;;;;;;;;;;;;;;;;;;;;;;;;;;;;;;;;;;;;;;;;;;;;;;;;;;;;;;;;;;;;;;;;;;;;;;;;;;;;;;;;;;;;;;;;;;;;;;;;;;;;;;;;;;;;;;;;;;;;;;;;;;;;;;;;;;;;;;;;;;;;;;;;;;;;;;;;;;;;;;;;;;;;;;;;;;;;;;;;;;;;;;;
2007;[9959] PLATZ T. (2007);samp. SD32A;;NEW ZEALAND / COROMANDEL-TAUPO / TAUPO VOLCANIC ZONE / EGMONT (MOUNT TARANAKI);STRATOVOLCANO, BURRELL LAPILLI, MOUNT TARANAKI (EGMONT);-39.2;173.85;-39.35;174.1;;;OUTCROP;;;SUBAERIAL;VOLCANIC ROCK;TRACHYDACITE;;GREY, UNIT 3;;;HOLOCENE;;1655;;;MINERAL / COMPONENT (INCL. GROUNDMASS);GLASS;;;;PRIMARY;;;;;;;;67.13;0.56;;;16.57;;;;;;;;;;;;2.5;2.5;0.72;0.17;;;;;;;5.14;EMP (EPMA);;;4.45;;;;;;;;;;;0.27;;;;;;;;;;;;;;;;;;;;;;;;;;;;;;;;;;;;;;;;;;;;;;;;;;;;;;;;;;;;;;;;;;;;;;;;;;;;;;;;;;;;;;;;;;;;;;;;;;;;;;;;;;;;;;;;;;;;;;;;;;;;;;;;;;;;;;;;;;;;;;;;;;;;;;;;;;;;;;;;;;;;;;;;;;;;;;;;;;;;;;;;;;;;;;;;;;;;;;;;;;;;;;;;;;
2007;[9959] PLATZ T. (2007);samp. SD32B;;NEW ZEALAND / COROMANDEL-TAUPO / TAUPO VOLCANIC ZONE / EGMONT (MOUNT TARANAKI);STRATOVOLCANO, BURRELL LAPILLI, MOUNT TARANAKI (EGMONT);-39.2;173.85;-39.35;174.1;;;OUTCROP;;;SUBAERIAL;VOLCANIC ROCK;TRACHYDACITE;;GREY, UNIT 3;;;HOLOCENE;;1655;;;MINERAL / COMPONENT (INCL. GROUNDMASS);GLASS;;;;PRIMARY;;;;;;;;66.8;0.44;;;16.64;;;;;;;;;;;;3.06;2.64;0.72;0.04;;;;;;;5.01;EMP (EPMA);;;4.3;;;;;;;;;;;0.36;;;;;;;;;;;;;;;;;;;;;;;;;;;;;;;;;;;;;;;;;;;;;;;;;;;;;;;;;;;;;;;;;;;;;;;;;;;;;;;;;;;;;;;;;;;;;;;;;;;;;;;;;;;;;;;;;;;;;;;;;;;;;;;;;;;;;;;;;;;;;;;;;;;;;;;;;;;;;;;;;;;;;;;;;;;;;;;;;;;;;;;;;;;;;;;;;;;;;;;;;;;;;;;;;;
2007;[9959] PLATZ T. (2007);samp. TO4-66;;NEW ZEALAND / COROMANDEL-TAUPO / TAUPO VOLCANIC ZONE / EGMONT (MOUNT TARANAKI);STRATOVOLCANO, BURRELL LAPILLI, MOUNT TARANAKI (EGMONT);-39.2;173.85;-39.35;174.1;;;OUTCROP;;;SUBAERIAL;VOLCANIC ROCK;TRACHYDACITE;;BLACK, UNIT 2;;;HOLOCENE;;1655;;;MINERAL / COMPONENT (INCL. GROUNDMASS);GLASS;;;;PRIMARY;;;;;;;;68.78;0.63;;;15.19;;;;;;;;;;;;2.66;1.7;0.7;0.17;;;;;;;5.95;EMP (EPMA);;;4.06;;;;;;;;;;;0.15;;;;;;;;;;;;;;;;;;;;;;;;;;;;;;;;;;;;;;;;;;;;;;;;;;;;;;;;;;;;;;;;;;;;;;;;;;;;;;;;;;;;;;;;;;;;;;;;;;;;;;;;;;;;;;;;;;;;;;;;;;;;;;;;;;;;;;;;;;;;;;;;;;;;;;;;;;;;;;;;;;;;;;;;;;;;;;;;;;;;;;;;;;;;;;;;;;;;;;;;;;;;;;;;;;
1996;[10179] BENEK R. (1996);samp. 1406;;EUROPEAN OROGENIC BELT - PALEOZOIC / GERMANY / NORTH GERMAN BASIN;EAST BRANDEBURG;53;13;53;13;;;OUTCROP;;;SUBAERIAL;VOLCANIC ROCK;TRACHYDACITE;;;;;PALEOZOIC;;;;;WHOLE ROCK;;;;;;;;;;;;;66.8;0.459;;;15.3;;;;;;;;;;3.05;;;1.36;0.79;0.048;;;;;;;6.62;XRF;;;2.94;0.194;;;;;;1.45;0.86;;;;;;;;;;;;;;;;;;;;;;;;;;;;;;;;9;ICPAES;;;;;;;;24;;;;20;;42;;;;;;154;XRF;;;87;XRF;;;18;ICPAES;;;138;XRF;;;9;XRF;;;;;;;;;;;;;5.58;1284;XRF;;;30;ICPAES;;;63;ICPAES;;;7.4;27;ICPAES;;;5.3;ICPAES;;;0.86;4.6;0.71;3.6;0.7;2;0.31;2;0.3;4.75;1.29;;;;;;;;;;;;;;11.7;INAA;;;3.43;;;;;;;;;;;;;;;;;;;;;;;;;;;;;;;;;;;;;;;;;;;;;;;;;;;;;;;;;;;;;;;;;;;;;;;;;;;;;;;;
1996;[10179] BENEK R. (1996);samp. 1404;;EUROPEAN OROGENIC BELT - PALEOZOIC / GERMANY / NORTH GERMAN BASIN;EAST BRANDEBURG;53;13;53;13;;;OUTCROP;;;SUBAERIAL;VOLCANIC ROCK;TRACHYDACITE;;;;;PALEOZOIC;;;;;WHOLE ROCK;;;;;;;;;;;;;62.6;0.668;;;15.6;;;;;;;;;;4.78;;;4.88;4.27;0.052;;;;;;;1.89;XRF;;;1.83;0.128;;;;;;2.9;0.27;;;;;;;;;;;;;;;;;;;;;;;;;;;;;;;;17;ICPAES;;;;;;;;323;;;;139;;36;;;;;;62;XRF;;;368;XRF;;;19;ICPAES;;;159;XRF;;;6;XRF;;;;;;;;;;;;;19.9;597;XRF;;;33;ICPAES;;;66;ICPAES;;;7.6;28;ICPAES;;;5.3;ICPAES;;;1.2;6.8;0.59;3.9;0.74;2.2;0.33;2.1;0.33;4.49;0.54;;;;;;;;;;;;;;7.17;INAA;;;1.07;;;;;;;;;;;;;;;;;;;;;;;;;;;;;;;;;;;;;;;;;;;;;;;;;;;;;;;;;;;;;;;;;;;;;;;;;;;;;;;;
1958;[10203] PARASKEVOPOULOS G. M (1958);samp. 103;;AEGEAN ARC / SOUTH AEGEAN VOLCANIC ARC / NISYROS / NISYROS;STRATOVOLCANO, DIAVALINI;36.59;27.17;36.59;27.17;;;OUTCROP;;;SUBAERIAL;VOLCANIC ROCK;TRACHYDACITE;;ANDESITE;;;;;;;;WHOLE ROCK;;;;;;;;;;;;;68.32;0.36;;;14.54;;;;;;;;;;3.93;;1.96;3.44;0.69;;;;;;;;2.68;WET;;;4.22;;;;;;0.38;;;;;;;;;;;;;;;;;;;;;;;;;;;;;;;;;;;;;;;;;;;;;;;;;;;;;;;;;;;;;;;;;;;;;;;;;;;;;;;;;;;;;;;;;;;;;;;;;;;;;;;;;;;;;;;;;;;;;;;;;;;;;;;;;;;;;;;;;;;;;;;;;;;;;;;;;;;;;;;;;;;;;;;;;;;;;;;;;;;;;;;;;;;;;;;;;;;;;;;;;;;;;;;;;;;;;;;
1993;[10240] MONTANINI A. (1993);samp. A190;;LIGURIA-SARDO-TYRRHENIAN ARC / SARDINIA / SOUTHERN SARDINIA / MONTE ARCI VOLCANIC COMPLEX;;39.7;8.8;39.7;8.8;;;OUTCROP;;;SUBAERIAL;VOLCANIC ROCK;TRACHYDACITE;PORPHYRITIC;BRECCIATED, GLASSY LAVA;;;PLIOCENE;;;;;WHOLE ROCK;;;;;;;;;;;;;64.6;0.82;;;15.2;;;;;;;;;3.82;;;;1.84;1.18;0.07;;;;;;;5.63;XRF;;;4.02;0.26;;;;;;;;;;;;;;2.57;;;;;0.54;1.78;;;;;;;;;;;;;;;;;;;6;ICPMS;;;;;;;28;14;;;;6;;;;;;;;;;;;187;ICPMS;;;31;ICPMS;;;322;ICPMS;;;43;ICPMS;;;;;;;;;;;;;;900;ICPMS;;;55;ICPMS;;;105.9;ICPMS;;;;51.7;ICPMS;;;11;ICPMS;;;2.74;8.95;;6.05;;2.7;;2.21;0.37;;;;;;;;;;;;;;;;16;ICPMS;;;;;;;;;;;;;;;;;;;;;;;;;;;;;;;;;;;;;;;;;;;;;;;;;;;;;;;;;;;;;;3093;AR-AR;3090;AR-AR;;;;;;;;;;;;;;;;;;
1993;[10240] MONTANINI A. (1993);samp. A190;;LIGURIA-SARDO-TYRRHENIAN ARC / SARDINIA / SOUTHERN SARDINIA / MONTE ARCI VOLCANIC COMPLEX;;39.7;8.8;39.7;8.8;;;OUTCROP;;;SUBAERIAL;VOLCANIC ROCK;TRACHYDACITE;PORPHYRITIC;BRECCIATED, GLASSY LAVA;;;PLIOCENE;;;;;MINERAL / COMPONENT (INCL. GROUNDMASS);PLAGIOCLASE;;PHENOCRYST;;PRIMARY;;;;;;;;61.7;0.08;;;24.1;;;;;;;;;;;0.17;;5.07;;;;;;;;;0.71;EMP (EPMA);;;8.62;;;;;;;;;;;;;;;;;;;;;;;;;;;;;;;;;;;;;;;;;;;;;;;;;;;;;;;;;;;;;;;;;;;;;;;;;;;;;;;;;;;;;;;;;;;;;;;;;;;;;;;;;;;;;;;;;;;;;;;;;;;;;;;;;;;;;;;;;;;;;;;;;;;;;;;;;;;;;;;;;;;;;;;;;;;;;;;;;;;;;;;;;;;;;72;24;;;;;;4;;;;;;;;;;;;;;;;;;;;;;;;;
1993;[10240] MONTANINI A. (1993);samp. A190;;LIGURIA-SARDO-TYRRHENIAN ARC / SARDINIA / SOUTHERN SARDINIA / MONTE ARCI VOLCANIC COMPLEX;;39.7;8.8;39.7;8.8;;;OUTCROP;;;SUBAERIAL;VOLCANIC ROCK;TRACHYDACITE;PORPHYRITIC;BRECCIATED, GLASSY LAVA;;;PLIOCENE;;;;;MINERAL / COMPONENT (INCL. GROUNDMASS);(AL)KALIFELDSPAR;;PHENOCRYST;;PRIMARY;;;;;;;;66.3;;;;19.5;;;;;;;;;;;0.27;;0.6;;;;;;;;;5.07;EMP (EPMA);;;8.15;;;;;;;;;;;;;;;;;;;;;;;;;;;;;;;;;;;;;;;;;;;;;;;;;;;;;;;;;;;;;;;;;;;;;;;;;;;;;;;;;;;;;;;;;;;;;;;;;;;;;;;;;;;;;;;;;;;;;;;;;;;;;;;;;;;;;;;;;;;;;;;;;;;;;;;;;;;;;;;;;;;;;;;;;;;;;;;;;;;;;;;;;;;;;69;3;;;;;;28;;;;;;;;;;;;;;;;;;;;;;;;;
2007;[10276] HILDRETH W. (2007);samp. B-645;;BASIN AND RANGE - GREAT BASIN / BASIN AND RANGE / CALIFORNIA / LONG VALLEY CALDERA / BISHOP TUFF RHYOLITE;;37.62;-118.75;37.62;-118.75;;;OUTCROP;;;SUBAERIAL;VOLCANIC ROCK;TRACHYDACITE;;;;;QUATERNARY;;;;;WHOLE ROCK;;;;;;;;;;;;;68.5670822801087;0.515472208874804;;;14.7981761723779;;;;;;;;;;;2.76957650728576;;3.1567518071493;1.64229445747513;0.0505162764697308;;;;;;;4.44543232933631;XRF;;;3.4330449111062;0.221653049816166;;;;;;;;;;;;;;2.5;;;;;;;;;;;;;;;;;;;;;;;;;;;;;;;;;;;;;;;;;;;;;;63;XRF;;;338;XRF;;;16;XRF;;;170;XRF;;;13;XRF;;;;;;;;;;;;;;759;XRF;;;;;;;;;;;;;;;;;;;;;;;;;;;;;;;;;;;;;;;;;;;;;;;;;;;;;;;;;;;;;;;;;;;;;;;;;;;;;;;;;;;;;;;;;;;;;;;;;;;;;;;;;;;;;;;;;;;;;;;;;;;;;;;;
2007;[10276] HILDRETH W. (2007);samp. B-653;;BASIN AND RANGE - GREAT BASIN / BASIN AND RANGE / CALIFORNIA / LONG VALLEY CALDERA / BISHOP TUFF RHYOLITE;;37.62;-118.75;37.62;-118.75;;;OUTCROP;;;SUBAERIAL;VOLCANIC ROCK;TRACHYDACITE;;;;;QUATERNARY;;;;;WHOLE ROCK;;;;;;;;;;;;;64.9403297659788;0.680679983289566;;;15.522352503835;;;;;;;;;;;3.68313497056699;;4.45240001027674;2.56603126734871;0.0671522853469527;;;;;;;3.81547075834959;XRF;;;3.54584415809288;0.326604296914725;;;;;;;;;;;;;;1.37;;;;;;;;;;;;;;;;;;;;;;;;;;;;;;;;;;;;;;;;;;;;;;56;XRF;;;494;XRF;;;13;XRF;;;179;XRF;;;14;XRF;;;;;;;;;;;;;;950;XRF;;;;;;;;;;;;;;;;;;;;;;;;;;;;;;;;;;;;;;;;;;;;;;;;;;;;;;;;;;;;;;;;;;;;;;;;;;;;;;;;;;;;;;;;;;;;;;;;;;;;;;;;;;;;;;;;;;;;;;;;;;;;;;;;
2006;[10543] AYALEW D. (2006);samp. E01-3A;;EAST AFRICAN RIFT / ETHIOPIAN RIFT / AFAR DEPRESSION;WESTERN MARGIN OF THE AFAR DEPRESSION;9.039;39.5653;9.039;39.5653;;;OUTCROP;;;SUBAERIAL;VOLCANIC ROCK;TRACHYDACITE;;;10560000;10560000;MIOCENE;;;;;WHOLE ROCK;;;;;;;;;;;;;67.24;1.11;;;15.51;;;;;;;;;;5.19;;;2.17;2.08;0.15;;;;;;;4.36;NOT;;;2.48;0.22;;;;;;;;;;;;;;7.15;;;;;;;;;;;;;;;;;;;;;;;;;10.1;NOT;;;;;;;21.9;3.5;;;;5.7;;130.5;25.7;;;;;81.2;NOT;;;271.9;NOT;;;72;NOT;;;663.8;NOT;;;74.3;NOT;;;;;;;;;;;;;;817.2;NOT;;;91.3;NOT;;;189.4;NOT;;;;87.6;NOT;;;;;;;;;;;;;;;;;;;;;;;;;16.2;NOT;;;;;11.8;NOT;;;;0.512654;;;;;0.705537;;;;;;;;;;;;;;;;;;;;;;;;;;;;;;;;;;;;;;;;;;;;;;;;;;;;;;;;;;;;;;;;;;;;;;;;;;
2006;[10543] AYALEW D. (2006);samp. E01-3A;;EAST AFRICAN RIFT / ETHIOPIAN RIFT / AFAR DEPRESSION;WESTERN MARGIN OF THE AFAR DEPRESSION;9.039;39.5653;9.039;39.5653;;;OUTCROP;;;SUBAERIAL;VOLCANIC ROCK;TRACHYDACITE;;;10560000;10560000;MIOCENE;;;;;MINERAL / COMPONENT (INCL. GROUNDMASS);(AL)KALIFELDSPAR;;;;PRIMARY;;;;;;;;;;;;;;;;;;;;;;;;;;;;;;;;;;;;;;;;;;;;;;;;;;;;;;;;;;;;;;;;;;;;;;;;;;;;;;;;;;;;;;;;;;;;;;;;;;;;;;;;;;;;;;;;;;;;;;;;;;;;;;;;;;;;;;;;;;;;;;;;;;;;;;;;;;;;;;;;;;;;;;;;;;;;;;;;;;;;;;;;;0.705445;;;;;;;;;;;;;;;;;;;;;;;;;;;;;;;;;;;;;;;;;;;;;;;;;;;;;;;;;;;;;;;;;;;;;;;;;;
2007;[10603] CADOUX A. (2007);samp. 84AE;;APENNINIC-MAGHREBIDES CHAIN / APENNINE / TUSCAN VOLCANIC PROVINCE / MONTE AMIATA;;42.88;11.62;42.88;11.62;;;OUTCROP;;;SUBAERIAL;VOLCANIC ROCK;TRACHYDACITE;;FINAL OLIVINE LATITIC LAVA FLOW;;;;;;;;WHOLE ROCK;;;;;;;;;;;;;;;;;;;;;;;;;;;;;;;;;;;;;;;;;;;;;;;;;;;;;;;;;;;;;;;;;;;;;;;;;;;;;;;;;;;;;;;;;;;;;;;;;;;;;;;;;;;;;;;;;;;;;;;;;;;;;;;;;;;;;;;;;;;;;;;;;;;;;;;;;;;;;;;;;;;;;;;;;;;;;;;;;;;;;;;;;;;;;;;;;;;18.721;;;;15.678;;;38.992;;;;;;;;;;;;;;;;;;;;;;;;;;;;;;;;;;;;;;;;;;;;;;;;;;;;;;;;;;;;;;
2007;[10603] CADOUX A. (2007);samp. 84AF;;APENNINIC-MAGHREBIDES CHAIN / APENNINE / TUSCAN VOLCANIC PROVINCE / MONTE AMIATA;;42.88;11.62;42.88;11.62;;;OUTCROP;;;SUBAERIAL;VOLCANIC ROCK;TRACHYDACITE;;FINAL OLIVINE LATITIC LAVA FLOW;;;;;;;;WHOLE ROCK;;;;;;;;;;;;;;;;;;;;;;;;;;;;;;;;;;;;;;;;;;;;;;;;;;;;;;;;;;;;;;;;;;;;;;;;;;;;;;;;;;;;;;;;;;;;;;;;;;;;;;;;;;;;;;;;;;;;;;;;;;;;;;;;;;;;;;;;;;;;;;;;;;;;;;;;;;;;;;;;;;;;;;;;;;;;;;;;;;;;;;;;;;;;;;;;;;;18.723;;;;15.68;;;38.999;;;;;;;;;;;;;;;;;;;;;;;;;;;;;;;;;;;;;;;;;;;;;;;;;;;;;;;;;;;;;;
2007;[10603] CADOUX A. (2007);samp. 84AH;;APENNINIC-MAGHREBIDES CHAIN / APENNINE / TUSCAN VOLCANIC PROVINCE / MONTE AMIATA;;42.88;11.62;42.88;11.62;;;OUTCROP;;;SUBAERIAL;VOLCANIC ROCK;TRACHYDACITE;;DOMES AND LAVA FLOWS COMPLEX;;;;;;;;WHOLE ROCK;;;;;;;;;;;;;;;;;;;;;;;;;;;;;;;;;;;;;;;;;;;;;;;;;;;;;;;;;;;;;;;;;;;;;;;;;;;;;;;;;;;;;;;;;;;;;;;;;;;;;;;;;;;;;;;;;;;;;;;;;;;;;;;;;;;;;;;;;;;;;;;;;;;;;;;;;;;;;;;;;;;;;;;;;;;;;;;;;;;;;;;;;;;;;;;;;;;18.721;;;;15.681;;;39.003;;;;;;;;;;;;;;;;;;;;;;;;;;;;;;;;;;;;;;;;;;;;;;;;;;;;;;;;;;;;;;
2007;[10603] CADOUX A. (2007);samp. 84AN;;APENNINIC-MAGHREBIDES CHAIN / APENNINE / TUSCAN VOLCANIC PROVINCE / MONTE AMIATA;;42.88;11.62;42.88;11.62;;;OUTCROP;;;SUBAERIAL;VOLCANIC ROCK;TRACHYDACITE;;DOMES AND LAVA FLOWS COMPLEX;;;;;;;;WHOLE ROCK;;;;;;;;;;;;;;;;;;;;;;;;;;;;;;;;;;;;;;;;;;;;;;;;;;;;;;;;;;;;;;;;;;;;;;;;;;;;;;;;;;;;;;;;;;;;;;;;;;;;;;;;;;;;;;;;;;;;;;;;;;;;;;;;;;;;;;;;;;;;;;;;;;;;;;;;;;;;;;;;;;;;;;;;;;;;;;;;;;;;;;;;;;;;;;;;;;;18.718;;;;15.681;;;39.003;;;;;;;;;;;;;;;;;;;;;;;;;;;;;;;;;;;;;;;;;;;;;;;;;;;;;;;;;;;;;;