Year;CITATION;SAMPLE NAME;UNIQUE_ID;LOCATION;LOCATION COMMENT;LATITUDE (MIN.);LONGITUDE (MIN.);LATITUDE (MAX.);LONGITUDE (MAX.);ELEVATION (MIN.);ELEVATION (MAX.);SAMPLING TECHNIQUE;DRILLING DEPTH (MIN.);DRILLING DEPTH (MAX.);LAND/SEA (SAMPLING);ROCK TYPE;ROCK NAME;ROCK TEXTURE;SAMPLE COMMENT;AGE (MIN.);AGE (MAX.);GEOLOGICAL AGE;GEOLOGICAL AGE PREFIX;ERUPTION YEAR;ALTERATION;ALTERATION TYPE;TYPE OF MATERIAL;MINERAL / COMPONENT;SPOT (MINERAL);CRYSTAL;RIM / CORE (MINERAL GRAINS);PRIMARY/SECONDARY;INCLUSION TYPE;SPOT (INCLUSION);MINERAL (INCLUSION);RIM / CORE (INCLUSION);HOSTMINERAL (INCLUSION);HEATING;HEATING TEMPERATURE (?C);SIO2(WT%);TIO2(WT%);ZRO2(WT%);B2O3(WT%);AL2O3(WT%);CR2O3(WT%);LA2O3(WT%);CE2O3(WT%);Y2O3(WT%);V2O3(WT%);NB2O3(WT%);TA2O5(WT%);WO3(WT%);FE2O3T(WT%);FE2O3(WT%);FEOT(WT%);FEO(WT%);CAO(WT%);MGO(WT%);MNO(WT%);BAO(WT%);SRO(WT%);NIO(WT%);ZNO(WT%);CS2O(WT%);RB2O(WT%);K2O(WT%);;;;NA2O(WT%);P2O5(WT%);H2O(WT%);;;;H2OP(WT%);H2OM(WT%);CO2(WT%);C(WT%);F(WT%);CL(WT%);SO2(WT%);SO3(WT%);S(WT%);LOI(WT%);AL(WT%);TI(WT%);FE(WT%);MG(WT%);CA(WT%);K(WT%);NA(WT%);LI(PPM);BE(PPM);B(PPM);C(PPM);F(PPM);NA(PPM);MG(PPM);AL(PPM);P(PPM);S(PPM);CL(PPM);AR40(AT/G);AR40(CCMSTP/G);AR40(MOL/G);AR40(PPB);K(PPM);CA(PPM);SC(PPM);;;;TI(PPM);;;;V(PPM);CR(PPM);MN(PPM);FE(PPM);CO(PPM);NI(PPM);CU(PPM);ZN(PPM);GA(PPM);GE(PPM);AS(PPM);SE(PPM);BR(PPM);RB(PPM): altern. values or methods;;;;SR(PPM): altern. values or methods;;;;Y(PPM): altern. values or methods;;;;ZR(PPM): altern. values or methods;;;;NB(PPM): altern. values or methods;;;;MO(PPM): altern. values or methods;;;;AG(PPM);CD(PPM);IN(PPM);SN(PPM);SB(PPM);TE(PPM);CS(PPM);BA(PPM): altern. values or methods;;;;LA(PPM): altern. values or methods;;;;CE(PPM): altern. values or methods;;;;PR(PPM);ND(PPM): altern. values or methods;;;;SM(PPM): altern. values or methods;;;;EU(PPM);GD(PPM);TB(PPM);DY(PPM);HO(PPM);ER(PPM);TM(PPM);YB(PPM);LU(PPM);HF(PPM);TA(PPM);W(PPM);RE(PPM);AU(PPM);AU(PPB);HG(PPM);HG(PPB);TL(PPM);PB(PPM): altern. values or methods;;;;PB206(PPM);BI(PPM);TH(PPM): altern. values or methods;;;;U(PPM);ND143_ND144;ND143_ND144_INI;EPSILON_ND;EPSILON_ND_INI;SM147_ND144;SR87_SR86;SR87_SR86_INI;EPSILON_SR;EPSILON_SR_INI;RB87_SR86;PB206_PB204;PB206_PB204_INI;PB206_PB207;PB206_PB208;PB207_PB204;PB207_PB204_INI;PB207_PB206;PB208_PB204;PB208_PB204_INI;PB208_PB206;HF176_HF177;HF176_HF177_INI;EPSILON_HF_INI;LU176_HF177;YB176_HF177;AR36_AR39;AR36_AR40;AR37_AR39;AR38_AR39;AR39_AR40;AR40_AR36;AR40_AR39;PB206_U238;PB207_U235;PB208_TH232;TH232_PB204;TH232_U238;U235_PB204;U238_PB204;U238_PB206;D7LI(VS LSVEC);D18O(PER MIL);D18O(VS SMOW);D18O(VS VSMOW);D56FE(VS IRMM-014);D57FE(VS IRMM-014);DD(VS SMOW);ALBITE(MOL%);ANORTHITE(MOL%);CA OLIVINE(MOL%);ENSTATITE(MOL%);FAYALITE(MOL%);FORSTERITE(MOL%);FERROSILITE(MOL%);ORTHOCLASE(MOL%);TEPHROITE(MOL%);ULVOSPINEL(MOL%);WOLLASTONITE(MOL%);AGE(KA): altern. values or methods;;;;AGE(MA): altern. values or methods;;;;;;;;AGE_PB207_PB206(MA);AGE_PB207_U235(MA);AGE_PB206_U238(MA): altern. values or methods;;;;;;AGE_PB208_TH232(MA);
1991;[16024] COLUCCI M. T. (1991);samp. COV-200;;NORTH AMERICAN CORDILLERA - CENOZOIC/QUATERNARY / CORDILLERA UNITED STATES / COLORADO / SAN JUAN VOLCANIC FIELD / CONEJOS FORMATION;ROCK CREEK MEMBER;37.75;-106.38;37.75;-106.38;;;OUTCROP;;;SUBAERIAL;VOLCANIC ROCK;TRACHYDACITE;;;;;OLIGOCENE;;;;;MINERAL / COMPONENT (INCL. GROUNDMASS);CLINOPYROXENE;;;RIM;PRIMARY;;;;;;;;51.29;0.61;;;2.11;;;;;;;;;;2.46;;6.19;20.32;15.03;0.5;;;;;;;;;;;0.38;;;;;;;;;;;;;;;;;;;;;;;;;;;;;;;;;;;;;;;;;;;;;;;;;;;;;;;;;;;;;;;;;;;;;;;;;;;;;;;;;;;;;;;;;;;;;;;;;;;;;;;;;;;;;;;;;;;;;;;;;;;;;;;;;;;;;;;;;;;;;;;;;;;;;;;;;;;;;;;;;;;;;;;;;;;;;;;;;;;;;;;;;;;;;;;;48;;;12;;;;39;;;;;;;;;;;;;;;;;;;;;;
1991;[16024] COLUCCI M. T. (1991);samp. COV-200;;NORTH AMERICAN CORDILLERA - CENOZOIC/QUATERNARY / CORDILLERA UNITED STATES / COLORADO / SAN JUAN VOLCANIC FIELD / CONEJOS FORMATION;ROCK CREEK MEMBER;37.75;-106.38;37.75;-106.38;;;OUTCROP;;;SUBAERIAL;VOLCANIC ROCK;TRACHYDACITE;;;;;OLIGOCENE;;;;;MINERAL / COMPONENT (INCL. GROUNDMASS);ORTHOPYROXENE;;;CORE;PRIMARY;;;;;;;;53.98;0.31;;;1.25;;;;;;;;;;0;;16.83;1.48;25.29;0.64;;;;;;;;;;;0.04;;;;;;;;;;;;;;;;;;;;;;;;;;;;;;;;;;;;;;;;;;;;;;;;;;;;;;;;;;;;;;;;;;;;;;;;;;;;;;;;;;;;;;;;;;;;;;;;;;;;;;;;;;;;;;;;;;;;;;;;;;;;;;;;;;;;;;;;;;;;;;;;;;;;;;;;;;;;;;;;;;;;;;;;;;;;;;;;;;;;;;;;;;;;;;;;11;;;26;;;;3;;;;;;;;;;;;;;;;;;;;;;
1991;[16024] COLUCCI M. T. (1991);samp. COV-200;;NORTH AMERICAN CORDILLERA - CENOZOIC/QUATERNARY / CORDILLERA UNITED STATES / COLORADO / SAN JUAN VOLCANIC FIELD / CONEJOS FORMATION;ROCK CREEK MEMBER;37.75;-106.38;37.75;-106.38;;;OUTCROP;;;SUBAERIAL;VOLCANIC ROCK;TRACHYDACITE;;;;;OLIGOCENE;;;;;MINERAL / COMPONENT (INCL. GROUNDMASS);ORTHOPYROXENE;;;RIM;PRIMARY;;;;;;;;53.25;0.32;;;1.54;;;;;;;;;;0.39;;16.49;1.5;25.14;0.64;;;;;;;;;;;0.02;;;;;;;;;;;;;;;;;;;;;;;;;;;;;;;;;;;;;;;;;;;;;;;;;;;;;;;;;;;;;;;;;;;;;;;;;;;;;;;;;;;;;;;;;;;;;;;;;;;;;;;;;;;;;;;;;;;;;;;;;;;;;;;;;;;;;;;;;;;;;;;;;;;;;;;;;;;;;;;;;;;;;;;;;;;;;;;;;;;;;;;;;;;;;;;;11;;;26;;;;3;;;;;;;;;;;;;;;;;;;;;;
1988;[16082] MCCURRY M. (1988);samp. HSV6;;BASIN AND RANGE - GREAT BASIN / BASIN AND RANGE / CALIFORNIA / WOODS MOUNTAINS VOLCANIC CENTER / HACKBERRY SPRINGS VOLCANICS;;35;-115.25;35.25;-115.4;;;OUTCROP;;;SUBAERIAL;VOLCANIC ROCK;TRACHYDACITE;;DOME;;;MIOCENE;MIDDLE;;;;WHOLE ROCK;;;;;;;;;;;;;65.7;0.89;;;15.4;;;;;;;;;;;5.38;;2.68;0.46;6.04;;;;;;;4.18;XRF;;;4.3;;;;;;;;;;;;;;;0.7;;;;;;;;;;;;;;;;;;;;;;;;;;;;;;;;;;;;;;;;53;;;;;;70;XRF;;;430;XRF;;;;;;;330;XRF;;;;;;;;;;;;;;;;;;;;;;;;;;;;;;;;;;;;;;;;;;;;;;;;;;;;;;;;;;;;;;;;;;;;;;;;;;;;;;;;;;;;;;;;;;;;;;;;;;;;;;;;;;;;;;;;;;;;;;;;;;;;;;;;;;;;;;;;;;;;;;;;;;;
2012;[16203] LEBEDEV V. A. (2012);samp. YUG-45;335017;ANATOLIA-IRAN BELT / ARMENIA / DZHAVAKHETI (ASHOTSK) NEOVOLCANIC AREA;3 KM SOUTH OF KHERTVISI VILLAGE ALONG THE KHERTVISI-VARDZIA ROAD (GODERDZI FORMATION);41.4584;43.2996;41.4584;43.2996;;;OUTCROP;;;SUBAERIAL;VOLCANIC ROCK;TRACHYDACITE;PORPHYRIC;;;;MIOCENE;;;;;WHOLE ROCK;;;;;;;;;;;;;65.45;0.76;;;14.54;;;;;;;;;5.46;;;;5.56;1.55;0.06;;;;;;;2.56;XRF;;;3.63;0.39;;;;;;;;;;;;;0.04;;;;;;;2.35;;;;;;;;;;;;;;;;1.19;;;;;;;;;;;100;29;;;16;34;59;162;;;;;;52;XRF;;;774;XRF;;;15;XRF;;;170;XRF;;;15;XRF;;;;;;;;;;;;;;626;XRF;;;;;;;;;;;;;;;;;;;;;;;;;;;;;;;;;;;;;;15;XRF;;;;;;;;;;;;;;;;;;;;;;;;;;;;;;;;;;;;;;;;;;;;;;;;;;;;;;;;;;;;;;;;;;;;;;;;7.3;K-AR;;;;;;;;;;;;;;;;
2012;[16203] LEBEDEV V. A. (2012);samp. YUG-167;;ANATOLIA-IRAN BELT / ARMENIA / DZHAVAKHETI (ASHOTSK) NEOVOLCANIC AREA;;41.4662;43.2593;41.4662;43.2593;;;OUTCROP;;;SUBAERIAL;VOLCANIC ROCK;TRACHYDACITE;PORPHYRIC;;;;MIOCENE;;;;;WHOLE ROCK;;;;;;;;;;;;;55.11;1.18;;;17.61;;;;;;;;;7.5;;;;6.82;3.53;0.11;;;;;;;2.59;XRF;;;4.97;0.58;;;;;;;;;;;;;0.02;;;;;;;2.21;;;;;;;;;;;;;;;;1.118;;;;;;;;;;;154;25;;;19;21;36;69;;;;;;41;XRF;;;1120;XRF;;;22;XRF;;;221;XRF;;;12;XRF;;;;;;;;;;;;;;810;XRF;;;;;;;;;;;;;;;;;;;;;;;;;;;;;;;;;;;;;;19;XRF;;;;;;;;;;;;;;;;;;;;;;;;;;;;;;;;;;;;;;;;;;;;;;;;;;;;;;;;;;;;;;;;;;;;;;;;7.3;K-AR;;;;;;;;;;;;;;;;
2012;[16203] LEBEDEV V. A. (2012);samp. YUG-45;335017;ANATOLIA-IRAN BELT / ARMENIA / DZHAVAKHETI (ASHOTSK) NEOVOLCANIC AREA;3 KM SOUTH OF KHERTVISI VILLAGE ALONG THE KHERTVISI-VARDZIA ROAD (GODERDZI FORMATION);41.4584;43.2996;41.4584;43.2996;;;OUTCROP;;;SUBAERIAL;VOLCANIC ROCK;TRACHYDACITE;PORPHYRIC;;;;MIOCENE;;;;;MINERAL / COMPONENT (INCL. GROUNDMASS);GROUNDMASS;;;;PRIMARY;;;;;;;;;;;;;;;;;;;;;;;;;;;;;;;;;;;;;;;;;;;;;;;;;;;;;;;;;;;;;;;;;;;;;;;;;;;;;;;;;;;;;;;;;;;;;;;;;;;71;NOT;;;814;NOT;;;;;;;;;;;;;;;;;;;;;;;;;;;;;;;;;;;;;;;10;NOT;;;1.6;NOT;;;;;;;;;;;;;;;;;;;;;;;;;;;;;;;;0.512828;;;;0.09486;0.704215;;;;0.2519;;;;;;;;;;;;;;;;;;;;;;;;;;;;;;;;;;;;;;;;;;;;;;;;;;;;;;;;;;;;;;;;;;;;;;
2011;[16298] KAYGUSUZ A. (2011);samp. 3;;ANATOLIA-IRAN BELT / TURKEY / PONTIDES;TORUL AREA;40.56;39.29;40.56;39.29;;;OUTCROP;;;SUBAERIAL;VOLCANIC ROCK;TRACHYDACITE;;;;;;;;;;WHOLE ROCK;;;;;;;;;;;;;61.84;0.54;;;16.03;;;;;;;;;5.54;;;;3.27;1.8;0.08;;;;;;;4.07;ICPAES;;;4.96;0.19;;;;;;;;;;;;;;1.5;;;;;;;;;;;;;;;;;;;;;;;;;;;;;;;;;153;;;;;7.9;25.5;40;14.5;;;;;97.9;ICPMS;;;386.9;ICPMS;;;17;ICPMS;;;121.4;ICPMS;;;5;ICPMS;;;;;;;;;;;;;;841;ICPMS;;;21.5;ICPMS;;;39.6;ICPMS;;;5.21;20.7;ICPMS;;;3.85;ICPMS;;;1.08;3.59;0.5;3.06;0.62;2.03;0.35;2.29;0.38;3.6;0.3;1.2;;;;;;;13.8;ICPMS;;;;;8.8;ICPMS;;;2.6;;;;;;;;;;;;;;;;;;;;;;;;;;;;;;;;;;;;;;;;;;;;;;;;;;;;;;;;;;;;;;;;;;;;;;;;;;;;;;;;
2011;[16298] KAYGUSUZ A. (2011);samp. 2;;ANATOLIA-IRAN BELT / TURKEY / PONTIDES;TORUL AREA;40.56;39.29;40.56;39.29;;;OUTCROP;;;SUBAERIAL;VOLCANIC ROCK;TRACHYDACITE;;;;;;;;;;WHOLE ROCK;;;;;;;;;;;;;63.65;0.51;;;15.63;;;;;;;;;5.11;;;;3.26;1.59;0.09;;;;;;;4.35;ICPAES;;;3.72;0.18;;;;;;;;;;;;;;1.7;;;;;;;;;;;;;;;;;;;;;;;;;;;;;;;;;136;;;;;7.7;24.9;36;13.6;;;;;101.9;ICPMS;;;325.5;ICPMS;;;17.5;ICPMS;;;113.9;ICPMS;;;5.1;ICPMS;;;;;;;;;;;;;;920;ICPMS;;;20.6;ICPMS;;;39.2;ICPMS;;;4.87;19.8;ICPMS;;;3.53;ICPMS;;;0.95;3.56;0.41;2.88;0.55;2.02;0.3;2.15;0.31;3.3;0.4;1;;;;;;;11.6;ICPMS;;;;;8.6;ICPMS;;;2.8;;;;;;;;;;;;;;;;;;;;;;;;;;;;;;;;;;;;;;;;;;;;;;;;;;;;;;;;;;;;;;;;;;;;;;;;;;;;;;;;
2011;[16298] KAYGUSUZ A. (2011);samp. 4;;ANATOLIA-IRAN BELT / TURKEY / PONTIDES;TORUL AREA;40.56;39.29;40.56;39.29;;;OUTCROP;;;SUBAERIAL;VOLCANIC ROCK;TRACHYDACITE;;;;;;;;;;WHOLE ROCK;;;;;;;;;;;;;61.96;0.47;;;16.52;;;;;;;;;4.76;;;;4.22;1.66;0.07;;;;;;;4.35;ICPAES;;;3.42;0.14;;;;;;;;;;;;;;2.2;;;;;;;;;;;;;;;;;;;;;;;;;;;;;;;;;123;;;;;6.4;53;36;14.1;;;;;92.7;ICPMS;;;588.9;ICPMS;;;14.2;ICPMS;;;122.4;ICPMS;;;5.4;ICPMS;;;;;;;;;;;;;;961;ICPMS;;;23;ICPMS;;;40.9;ICPMS;;;4.97;18.3;ICPMS;;;3.38;ICPMS;;;0.94;3.11;0.39;2.62;0.51;1.51;0.25;1.76;0.25;3.3;0.3;1.2;;;;;;;11.2;ICPMS;;;;;10.1;ICPMS;;;2.5;0.512722;;;;0.11166;0.705384;;;;0.4565;;;;;;;;;;;;;;;;;;;;;;;;;;;;;;;;;;;;;;;;;;;;;;;;;;;;;;;;;;;;;;;;;;;;;;
2011;[16298] KAYGUSUZ A. (2011);samp. 4;;ANATOLIA-IRAN BELT / TURKEY / PONTIDES;TORUL AREA;40.56;39.29;40.56;39.29;;;OUTCROP;;;SUBAERIAL;VOLCANIC ROCK;TRACHYDACITE;;;;;;;;;;MINERAL / COMPONENT (INCL. GROUNDMASS);AMPHIBOLE;;;;PRIMARY;;;;;;;;;;;;;;;;;;;;;;;;;;;;;;;;;;;;;;;;;;;;;;;;;;;;;;;;;;;0.671;;;;;;;;;;;;;;;2.09E-11;;;;;;;;;;;;;;;;;;;;;;;;;;;;;;;;;;;;;;;;;;;;;;;;;;;;;;;;;;;;;;;;;;;;;;;;;;;;;;;;;;;;;;;;;;;;;;;;;;;;;;;;;;;;;;;;;;;;;;;;;;;;;;;;;;;;;;;;;;;;;;;;;;;;;;;;;;;;;;;;;;;;;;;;33.45;K-AR;;;;;;;;;;;;;;;;
2000;[16460] WAICHEL B. L. (2000);samp. LES;;SUL RIO GRANDENSE SHIELD / BRAZIL / CAMPO ALEGRE BASIN;;-22.5;-44.8;-22.5;-44.8;;;OUTCROP;;;SUBAERIAL;VOLCANIC ROCK;TRACHYDACITE;;;;;PROTEROZOIC;NEO;;;;WHOLE ROCK;;;;;;;;;;;;;67.6;0.7;;;14.7;;;;;;;;;;5.1;;;0.7;0.2;;;;;;;;4.7;ICPAES;;;4.3;0.3;;;;;;;;;;;;;;;;;;;;;;;;;;;;;;;;;;;;;;;;;;;;;;;;;;;;;;;;;;;;150;ICPMS;;;267;ICPMS;;;12;ICPMS;;;476;ICPMS;;;33;ICPMS;;;;;;;;;;;;;;1750;ICPMS;;;92.7;ICPMS;;;208;ICPMS;;;20.3;79;ICPMS;;;15.6;ICPMS;;;2.7;15.2;2.3;12.5;2.4;7.1;1;6.4;0.9;12.6;1.8;;;;;;;;;;;;;;15.6;ICPMS;;;;;;;;;;;;;;;;;;;;;;;;;;;;;;;;;;;;;;;;;;;;;;;;;;;;;;;;;;;;;;;;;;;;;;;;;;;;;;;;;;;
2000;[16460] WAICHEL B. L. (2000);samp. UES;;SUL RIO GRANDENSE SHIELD / BRAZIL / CAMPO ALEGRE BASIN;;-22.5;-44.8;-22.5;-44.8;;;OUTCROP;;;SUBAERIAL;VOLCANIC ROCK;TRACHYDACITE;;;;;PROTEROZOIC;NEO;;;;WHOLE ROCK;;;;;;;;;;;;;66.3;0.7;;;14.7;;;;;;;;;;6.8;;;0.4;0.4;;;;;;;;5.5;ICPAES;;;3.6;0.1;;;;;;;;;;;;;;;;;;;;;;;;;;;;;;;;;;;;;;;;;;;;;;;;;;;;;;;;;;;;90;ICPMS;;;13;ICPMS;;;54;ICPMS;;;674;ICPMS;;;20;ICPMS;;;;;;;;;;;;;;724;ICPMS;;;82.9;ICPMS;;;136;ICPMS;;;17.6;70.1;ICPMS;;;12.9;ICPMS;;;2.2;12;1.8;9.5;1.9;5.7;0.8;5.3;0.8;14.4;1;;;;;;;;;;;;;;10.4;ICPMS;;;;;;;;;;;;;;;;;;;;;;;;;;;;;;;;;;;;;;;;;;;;;;;;;;;;;;;;;;;;;;;;;;;;;;;;;;;;;;;;;;;
2007;[16462] JANASI V. A. (2007);samp. OU-51B;;PARANA / NORTHERN PARANA PROVINCE / SERRA GERAL FORMATION;PIRAJU-OURINHOS REGION, SAO PAULO;-23;-49;-23.3;-50;;;OUTCROP;;;SUBAERIAL;VOLCANIC ROCK;TRACHYDACITE;;LAVA FLOW, GRANULAR;;;CRETACEOUS;LOWER;;;;WHOLE ROCK;;;;;;;;;;;;;66.41;1.19;;;12.9;;;;;;;;;6.55;;;;2.01;0.94;0.08;;;;;;;4.42;XRF;;;3.17;0.32;;;;;;;;;;;;;;1.08;;;;;;;;;;;;661;;;;;;;;;;;;;10;XRF;;;;;;;16;0;;;0;4;14;120;22;;;;;160;XRF;;;339;XRF;;;55;XRF;;;550;XRF;;;45;XRF;;;;;;;;;;;;;;1107;XRF;;;59;XRF;;;144;XRF;;;;73;XRF;;;;;;;;;;;;;;;;;;;;;;;;;20;XRF;;;;;17;XRF;;;;;;;;;;;;;;;;;;;;;;;;;;;;;;;;;;;;;;;;;;;;;;;;;;;;;;;;;;;;;;;;;;;;;;;;;;;;;;;;;;;
2007;[16462] JANASI V. A. (2007);samp. OU-54;;PARANA / NORTHERN PARANA PROVINCE / SERRA GERAL FORMATION;PIRAJU-OURINHOS REGION, SAO PAULO;-23;-49;-23.3;-50;;;OUTCROP;;;SUBAERIAL;VOLCANIC ROCK;TRACHYDACITE;;LAVA FLOW, GRANULAR;;;CRETACEOUS;LOWER;;;;WHOLE ROCK;;;;;;;;;;;;;65.88;1.22;;;12.78;;;;;;;;;6.73;;;;2.39;1;0.1;;;;;;;4.32;XRF;;;3.32;0.33;;;;;;;;;;;;;;1.02;;;;;;;;;;;;776;;;;;;;;;;;;;13;XRF;;;;;;;20;4;;;3;2;14;115;22;;;;;126;XRF;;;326;XRF;;;62;XRF;;;555;XRF;;;46;XRF;;;;;;;;;;;;;;1123;XRF;;;71;XRF;;;140;XRF;;;;83;XRF;;;;;;;;;;;;;;;;;;;;;;;;;26;XRF;;;;;20;XRF;;;;;;;;;;;;;;;;;;;;;;;;;;;;;;;;;;;;;;;;;;;;;;;;;;;;;;;;;;;;;;;;;;;;;;;;;;;;;;;;;;;
2007;[16462] JANASI V. A. (2007);samp. OU-61;;PARANA / NORTHERN PARANA PROVINCE / SERRA GERAL FORMATION;PIRAJU-OURINHOS REGION, SAO PAULO;-23;-49;-23.3;-50;;;OUTCROP;;;SUBAERIAL;VOLCANIC ROCK;TRACHYDACITE;;LAVA FLOW, GRANULAR;;;CRETACEOUS;LOWER;;;;WHOLE ROCK;;;;;;;;;;;;;65.88;1.21;;;12.78;;;;;;;;;6.83;;;;2.67;1;0.12;;;;;;;4.26;XRF;;;3.38;0.32;;;;;;;;;;;;;;0.62;;;;;;;;;;;;775;;;;;;;;;;;;;12;XRF;;;;;;;22;4;;;0;4;14;106;23;;;;;126;XRF;;;348;XRF;;;58;XRF;;;555;XRF;;;47;XRF;;;;;;;;;;;;;;1120;XRF;;;78;XRF;;;154;XRF;;;;69;XRF;;;;;;;;;;;;;;;;;;;;;;;;;19;XRF;;;;;22;XRF;;;;;;;;;;;;;;;;;;;;;;;;;;;;;;;;;;;;;;;;;;;;;;;;;;;;;;;;;;;;;;;;;;;;;;;;;;;;;;;;;;;
2007;[16462] JANASI V. A. (2007);samp. OU-101B;;PARANA / NORTHERN PARANA PROVINCE / SERRA GERAL FORMATION;PIRAJU-OURINHOS REGION, SAO PAULO;-23;-49;-23.3;-50;;;OUTCROP;;;SUBAERIAL;VOLCANIC ROCK;TRACHYDACITE;;LAVA FLOW, GRANULAR;;;CRETACEOUS;LOWER;;;;WHOLE ROCK;;;;;;;;;;;;;66.21;1.19;;;12.77;;;;;;;;;6.74;;;;2.4;0.84;0.13;;;;;;;4.55;XRF;;;3.19;0.33;;;;;;;;;;;;;;0.91;;;;;;;;;;;;670;;;;;;;;;;;;;12;XRF;;;;;;;19;4;;;4;4;12;102;22;;;;;129;XRF;;;322;XRF;;;55;XRF;;;549;XRF;;;46;XRF;;;;;;;;;;;;;;1034;XRF;;;76;XRF;;;141;XRF;;;;67;XRF;;;;;;;;;;;;;;;;;;;;;;;;;16;XRF;;;;;19;XRF;;;;;;;;;;;;;;;;;;;;;;;;;;;;;;;;;;;;;;;;;;;;;;;;;;;;;;;;;;;;;;;;;;;;;;;;;;;;;;;;;;;
2007;[16462] JANASI V. A. (2007);samp. OU-155;;PARANA / NORTHERN PARANA PROVINCE / SERRA GERAL FORMATION;PIRAJU-OURINHOS REGION, SAO PAULO;-23;-49;-23.3;-50;;;OUTCROP;;;SUBAERIAL;VOLCANIC ROCK;TRACHYDACITE;;LAVA FLOW, SALT AND PEPPER;;;CRETACEOUS;LOWER;;;;WHOLE ROCK;;;;;;;;;;;;;65.94;1.21;;;12.72;;;;;;;;;6.81;;;;2.37;1.08;0.13;;;;;;;4.5;XRF;;;3.28;0.32;;;;;;;;;;;;;;0.97;;;;;;;;;;;;463;;;;;;;;;;;;;11;XRF;;;;;;;20;3;;;0;3;16;109;22;;;;;142;XRF;;;322;XRF;;;60;XRF;;;555;XRF;;;47;XRF;;;;;;;;;;;;;;1089;XRF;;;69;XRF;;;156;XRF;;;;82;XRF;;;;;;;;;;;;;;;;;;;;;;;;;18;XRF;;;;;20;XRF;;;;;;;;;;;;;;;;;;;;;;;;;;;;;;;;;;;;;;;;;;;;;;;;;;;;;;;;;;;;;;;;;;;;;;;;;;;;;;;;;;;
2007;[16462] JANASI V. A. (2007);samp. OU-210;;PARANA / NORTHERN PARANA PROVINCE / SERRA GERAL FORMATION;PIRAJU-OURINHOS REGION, SAO PAULO;-23;-49;-23.3;-50;;;OUTCROP;;;SUBAERIAL;VOLCANIC ROCK;TRACHYDACITE;;LAVA FLOW, GLASSY GRAY;;;CRETACEOUS;LOWER;;;;WHOLE ROCK;;;;;;;;;;;;;65.59;1.21;;;12.77;;;;;;;;;6.71;;;;2.36;1.24;0.1;;;;;;;4.75;XRF;;;3.03;0.32;;;;;;;;;;;;;;1.22;;;;;;;;;;;;656;;;;;;;;;;;;;14;XRF;;;;;;;19;0;;;4;4;13;108;23;;;;;139;XRF;;;327;XRF;;;120;XRF;;;550;XRF;;;47;XRF;;;;;;;;;;;;;;1297;XRF;;;76;XRF;;;148;XRF;;;;86;XRF;;;;;;;;;;;;;;;;;;;;;;;;;16;XRF;;;;;19;XRF;;;;;;;;;;;;;;;;;;;;;;;;;;;;;;;;;;;;;;;;;;;;;;;;;;;;;;;;;;;;;;;;;;;;;;;;;;;;;;;;;;;
2007;[16462] JANASI V. A. (2007);samp. OU-226B;;PARANA / NORTHERN PARANA PROVINCE / SERRA GERAL FORMATION;PIRAJU-OURINHOS REGION, SAO PAULO;-23;-49;-23.3;-50;;;OUTCROP;;;SUBAERIAL;VOLCANIC ROCK;TRACHYDACITE;;LAVA FLOW, GLASSY GRAY;;;CRETACEOUS;LOWER;;;;WHOLE ROCK;;;;;;;;;;;;;66.29;1.18;;;12.71;;;;;;;;;6.68;;;;2.42;0.84;0.13;;;;;;;4.48;XRF;;;3.19;0.33;;;;;;;;;;;;;;1.15;;;;;;;;;;;;605;;;;;;;;;;;;;12;XRF;;;;;;;19;0;;;4;3;16;112;21;;;;;144;XRF;;;310;XRF;;;63;XRF;;;552;XRF;;;46;XRF;;;;;;;;;;;;;;1201;XRF;;;65;XRF;;;145;XRF;;;;85;XRF;;;;;;;;;;;;;;;;;;;;;;;;;17;XRF;;;;;19;XRF;;;;;;;;;;;;;;;;;;;;;;;;;;;;;;;;;;;;;;;;;;;;;;;;;;;;;;;;;;;;;;;;;;;;;;;;;;;;;;;;;;;
2007;[16462] JANASI V. A. (2007);samp. OU-305A;;PARANA / NORTHERN PARANA PROVINCE / SERRA GERAL FORMATION;PIRAJU-OURINHOS REGION, SAO PAULO;-23;-49;-23.3;-50;;;OUTCROP;;;SUBAERIAL;VOLCANIC ROCK;TRACHYDACITE;;LAVA FLOW, GLASSY GRAY;;;CRETACEOUS;LOWER;;;;WHOLE ROCK;;;;;;;;;;;;;65.28;1.22;;;12.8;;;;;;;;;7.05;;;;1.78;1.34;0.09;;;;;;;4.81;XRF;;;3.12;0.32;;;;;;;;;;;;;;1.43;;;;;;;;;;;;781;;;;;;;;;;;;;11;XRF;;;;;;;16;2;;;4;3;14;117;23;;;;;144;XRF;;;314;XRF;;;78;XRF;;;555;XRF;;;48;XRF;;;;;;;;;;;;;;1149;XRF;;;88;XRF;;;145;XRF;;;;83;XRF;;;;;;;;;;;;;;;;;;;;;;;;;15;XRF;;;;;19;XRF;;;;;;;;;;;;;;;;;;;;;;;;;;;;;;;;;;;;;;;;;;;;;;;;;;;;;;;;;;;;;;;;;;;;;;;;;;;;;;;;;;;
2007;[16462] JANASI V. A. (2007);samp. OU-322;;PARANA / NORTHERN PARANA PROVINCE / SERRA GERAL FORMATION;PIRAJU-OURINHOS REGION, SAO PAULO;-23;-49;-23.3;-50;;;OUTCROP;;;SUBAERIAL;VOLCANIC ROCK;TRACHYDACITE;;LAVA FLOW, GLASSY GRAY;;;CRETACEOUS;LOWER;;;;WHOLE ROCK;;;;;;;;;;;;;65.66;1.18;;;12.85;;;;;;;;;6.79;;;;2.53;0.99;0.12;;;;;;;4.64;XRF;;;3.18;0.32;;;;;;;;;;;;;;0.88;;;;;;;;;;;;835;;;;;;;;;;;;;10;XRF;;;;;;;18;0;;;0;2;16;110;21;;;;;131;XRF;;;323;XRF;;;59;XRF;;;550;XRF;;;46;XRF;;;;;;;;;;;;;;1110;XRF;;;79;XRF;;;129;XRF;;;;78;XRF;;;;;;;;;;;;;;;;;;;;;;;;;17;XRF;;;;;22;XRF;;;;;;;;;;;;;;;;;;;;;;;;;;;;;;;;;;;;;;;;;;;;;;;;;;;;;;;;;;;;;;;;;;;;;;;;;;;;;;;;;;;
2007;[16462] JANASI V. A. (2007);samp. OU-373;;PARANA / NORTHERN PARANA PROVINCE / SERRA GERAL FORMATION;PIRAJU-OURINHOS REGION, SAO PAULO;-23;-49;-23.3;-50;;;OUTCROP;;;SUBAERIAL;VOLCANIC ROCK;TRACHYDACITE;;LAVA FLOW, SALT AND PEPPER;;;CRETACEOUS;LOWER;;;;WHOLE ROCK;;;;;;;;;;;;;65.63;1.21;;;12.89;;;;;;;;;6.76;;;;2.39;0.97;0.15;;;;;;;4.57;XRF;;;3.2;0.33;;;;;;;;;;;;;;0.98;;;;;;;;;;;;566;;;;;;;;;;;;;11;XRF;;;;;;;23;0;;;4;4;15;133;23;;;;;134;XRF;;;325;XRF;;;59;XRF;;;559;XRF;;;47;XRF;;;;;;;;;;;;;;1132;XRF;;;67;XRF;;;141;XRF;;;;79;XRF;;;;;;;;;;;;;;;;;;;;;;;;;17;XRF;;;;;20;XRF;;;;;;;;;;;;;;;;;;;;;;;;;;;;;;;;;;;;;;;;;;;;;;;;;;;;;;;;;;;;;;;;;;;;;;;;;;;;;;;;;;;
2007;[16462] JANASI V. A. (2007);samp. OU-380A;;PARANA / NORTHERN PARANA PROVINCE / SERRA GERAL FORMATION;PIRAJU-OURINHOS REGION, SAO PAULO;-23;-49;-23.3;-50;;;OUTCROP;;;SUBAERIAL;VOLCANIC ROCK;TRACHYDACITE;;LAVA FLOW, SALT AND PEPPER;;;CRETACEOUS;LOWER;;;;WHOLE ROCK;;;;;;;;;;;;;66.17;1.22;;;12.96;;;;;;;;;6.77;;;;2.63;1.05;0.13;;;;;;;4.28;XRF;;;3.26;0.33;;;;;;;;;;;;;;0.8;;;;;;;;;;;;1109;;;;;;;;;;;;;14;XRF;;;;;;;14;5;;;0;2;15;110;21;;;;;127;XRF;;;335;XRF;;;58;XRF;;;558;XRF;;;47;XRF;;;;;;;;;;;;;;1036;XRF;;;76;XRF;;;142;XRF;;;;70;XRF;;;;;;;;;;;;;;;;;;;;;;;;;17;XRF;;;;;21;XRF;;;;;;;;;;;;;;;;;;;;;;;;;;;;;;;;;;;;;;;;;;;;;;;;;;;;;;;;;;;;;;;;;;;;;;;;;;;;;;;;;;;
2007;[16462] JANASI V. A. (2007);samp. OU-397A;;PARANA / NORTHERN PARANA PROVINCE / SERRA GERAL FORMATION;PIRAJU-OURINHOS REGION, SAO PAULO;-23;-49;-23.3;-50;;;OUTCROP;;;SUBAERIAL;VOLCANIC ROCK;TRACHYDACITE;;LAVA FLOW, SALT AND PEPPER;;;CRETACEOUS;LOWER;;;;WHOLE ROCK;;;;;;;;;;;;;65.22;1.21;;;;;;;;;;;;6.67;;;;2.15;1.27;0.1;;;;;;;4.68;XRF;;;3.11;0.33;;;;;;;;;;;;;;1.02;;;;;;;;;;;;533;;;;;;;;;;;;;12;XRF;;;;;;;23;7;;;0;3;16;108;23;;;;;133;XRF;;;311;XRF;;;56;XRF;;;559;XRF;;;47;XRF;;;;;;;;;;;;;;1004;XRF;;;76;XRF;;;115;XRF;;;;76;XRF;;;;;;;;;;;;;;;;;;;;;;;;;19;XRF;;;;;19;XRF;;;;;;;;;;;;;;;;;;;;;;;;;;;;;;;;;;;;;;;;;;;;;;;;;;;;;;;;;;;;;;;;;;;;;;;;;;;;;;;;;;;
2007;[16462] JANASI V. A. (2007);samp. OU-01A;;PARANA / NORTHERN PARANA PROVINCE / SERRA GERAL FORMATION;PIRAJU-OURINHOS REGION, SAO PAULO;-23;-49;-23.3;-50;;;OUTCROP;;;SUBAERIAL;VOLCANIC ROCK;TRACHYDACITE;;LAVA FLOW, GLASSY GRAY;;;CRETACEOUS;LOWER;;;;WHOLE ROCK;;;;;;;;;;;;;64.75;1.19;;;13.03;;;;;;;;;6.63;;;;2.53;1.17;0.13;;;;;;;4.2;ICPOES;;;3.45;0.31;;;;;;;;;;;;;;0.8;;;;;;;;;;;;;;;;;;;;;;;;;;;;;;;;;37;;;;;;;;;;;;;;;;;341;ICPOES;;;56;ICPOES;;;508;ICPOES;;;;;;;;;;;;;;;;;;1104;ICPOES;;;74;ICPOES;;;;;;;;;;;;;;;;;;;;;;;;;;;;;;;;;;;;;;;;;;;;;;;;;;;;;;;;;;;;;;;;;;;;;;;;;;;;;;;;;;;;;;;;;;;;;;;;;;;;;;;;;;;;;;;;;;;;;;;;;;;;