Year;CITATION;SAMPLE NAME;UNIQUE_ID;LOCATION;LOCATION COMMENT;LATITUDE (MIN.);LONGITUDE (MIN.);LATITUDE (MAX.);LONGITUDE (MAX.);ELEVATION (MIN.);ELEVATION (MAX.);SAMPLING TECHNIQUE;DRILLING DEPTH (MIN.);DRILLING DEPTH (MAX.);LAND/SEA (SAMPLING);ROCK TYPE;ROCK NAME;ROCK TEXTURE;SAMPLE COMMENT;AGE (MIN.);AGE (MAX.);GEOLOGICAL AGE;GEOLOGICAL AGE PREFIX;ERUPTION YEAR;ALTERATION;ALTERATION TYPE;TYPE OF MATERIAL;MINERAL / COMPONENT;SPOT (MINERAL);CRYSTAL;RIM / CORE (MINERAL GRAINS);PRIMARY/SECONDARY;INCLUSION TYPE;SPOT (INCLUSION);MINERAL (INCLUSION);RIM / CORE (INCLUSION);HOSTMINERAL (INCLUSION);HEATING;HEATING TEMPERATURE (?C);SIO2(WT%);TIO2(WT%);ZRO2(WT%);B2O3(WT%);AL2O3(WT%);CR2O3(WT%);LA2O3(WT%);CE2O3(WT%);Y2O3(WT%);V2O3(WT%);NB2O3(WT%);TA2O5(WT%);WO3(WT%);FE2O3T(WT%);FE2O3(WT%);FEOT(WT%);FEO(WT%);CAO(WT%);MGO(WT%);MNO(WT%);BAO(WT%);SRO(WT%);NIO(WT%);ZNO(WT%);CS2O(WT%);RB2O(WT%);K2O(WT%);;;;NA2O(WT%);P2O5(WT%);H2O(WT%);;;;H2OP(WT%);H2OM(WT%);CO2(WT%);C(WT%);F(WT%);CL(WT%);SO2(WT%);SO3(WT%);S(WT%);LOI(WT%);AL(WT%);TI(WT%);FE(WT%);MG(WT%);CA(WT%);K(WT%);NA(WT%);LI(PPM);BE(PPM);B(PPM);C(PPM);F(PPM);NA(PPM);MG(PPM);AL(PPM);P(PPM);S(PPM);CL(PPM);AR40(AT/G);AR40(CCMSTP/G);AR40(MOL/G);AR40(PPB);K(PPM);CA(PPM);SC(PPM);;;;TI(PPM);;;;V(PPM);CR(PPM);MN(PPM);FE(PPM);CO(PPM);NI(PPM);CU(PPM);ZN(PPM);GA(PPM);GE(PPM);AS(PPM);SE(PPM);BR(PPM);RB(PPM): altern. values or methods;;;;SR(PPM): altern. values or methods;;;;Y(PPM): altern. values or methods;;;;ZR(PPM): altern. values or methods;;;;NB(PPM): altern. values or methods;;;;MO(PPM): altern. values or methods;;;;AG(PPM);CD(PPM);IN(PPM);SN(PPM);SB(PPM);TE(PPM);CS(PPM);BA(PPM): altern. values or methods;;;;LA(PPM): altern. values or methods;;;;CE(PPM): altern. values or methods;;;;PR(PPM);ND(PPM): altern. values or methods;;;;SM(PPM): altern. values or methods;;;;EU(PPM);GD(PPM);TB(PPM);DY(PPM);HO(PPM);ER(PPM);TM(PPM);YB(PPM);LU(PPM);HF(PPM);TA(PPM);W(PPM);RE(PPM);AU(PPM);AU(PPB);HG(PPM);HG(PPB);TL(PPM);PB(PPM): altern. values or methods;;;;PB206(PPM);BI(PPM);TH(PPM): altern. values or methods;;;;U(PPM);ND143_ND144;ND143_ND144_INI;EPSILON_ND;EPSILON_ND_INI;SM147_ND144;SR87_SR86;SR87_SR86_INI;EPSILON_SR;EPSILON_SR_INI;RB87_SR86;PB206_PB204;PB206_PB204_INI;PB206_PB207;PB206_PB208;PB207_PB204;PB207_PB204_INI;PB207_PB206;PB208_PB204;PB208_PB204_INI;PB208_PB206;HF176_HF177;HF176_HF177_INI;EPSILON_HF_INI;LU176_HF177;YB176_HF177;AR36_AR39;AR36_AR40;AR37_AR39;AR38_AR39;AR39_AR40;AR40_AR36;AR40_AR39;PB206_U238;PB207_U235;PB208_TH232;TH232_PB204;TH232_U238;U235_PB204;U238_PB204;U238_PB206;D7LI(VS LSVEC);D18O(PER MIL);D18O(VS SMOW);D18O(VS VSMOW);D56FE(VS IRMM-014);D57FE(VS IRMM-014);DD(VS SMOW);ALBITE(MOL%);ANORTHITE(MOL%);CA OLIVINE(MOL%);ENSTATITE(MOL%);FAYALITE(MOL%);FORSTERITE(MOL%);FERROSILITE(MOL%);ORTHOCLASE(MOL%);TEPHROITE(MOL%);ULVOSPINEL(MOL%);WOLLASTONITE(MOL%);AGE(KA): altern. values or methods;;;;AGE(MA): altern. values or methods;;;;;;;;AGE_PB207_PB206(MA);AGE_PB207_U235(MA);AGE_PB206_U238(MA): altern. values or methods;;;;;;AGE_PB208_TH232(MA);
1996;[6332] COOMBS D. S. (1996);samp. OU61936;;NEW ZEALAND / SOUTH ISLAND / SOUTHLAND / PARK VOLCANICS - PINNEY VOLCANICS;MURIHIKU TERRANE;-46;168;-46;168;;;OUTCROP;;;SUBAERIAL;VOLCANIC ROCK;TRACHYDACITE;;;;;JURASSIC;;;;;MINERAL / COMPONENT (INCL. GROUNDMASS);CLINOPYROXENE;;PHENOCRYST;CORE;PRIMARY;;;;;;;;51.83;0.78;;;2.51;;;;;;;;;;;7.51;;21.45;15.54;0.16;;;;;;;;;;;0.25;;;;;;;;;;;;;;;;;;;;;;;;;;;;;;;;;;;;;;;;;;;;;;;;;;;;;;;;;;;;;;;;;;;;;;;;;;;;;;;;;;;;;;;;;;;;;;;;;;;;;;;;;;;;;;;;;;;;;;;;;;;;;;;;;;;;;;;;;;;;;;;;;;;;;;;;;;;;;;;;;;;;;;;;;;;;;;;;;;;;;;;;;;;;;;;;;;;;;;;;;;;;;;;;;;;;;;;;;;;;;
1996;[6332] COOMBS D. S. (1996);samp. OU61936;;NEW ZEALAND / SOUTH ISLAND / SOUTHLAND / PARK VOLCANICS - PINNEY VOLCANICS;MURIHIKU TERRANE;-46;168;-46;168;;;OUTCROP;;;SUBAERIAL;VOLCANIC ROCK;TRACHYDACITE;;;;;JURASSIC;;;;;MINERAL / COMPONENT (INCL. GROUNDMASS);CLINOPYROXENE;;GROUNDMASS;;PRIMARY;;;;;;;;52.02;0.41;;;1.03;;;;;;;;;;;10.61;;20.56;14.26;0.47;;;;;;;;;;;0.39;;;;;;;;;;;;;;;;;;;;;;;;;;;;;;;;;;;;;;;;;;;;;;;;;;;;;;;;;;;;;;;;;;;;;;;;;;;;;;;;;;;;;;;;;;;;;;;;;;;;;;;;;;;;;;;;;;;;;;;;;;;;;;;;;;;;;;;;;;;;;;;;;;;;;;;;;;;;;;;;;;;;;;;;;;;;;;;;;;;;;;;;;;;;;;;;;;;;;;;;;;;;;;;;;;;;;;;;;;;;;
1996;[6332] COOMBS D. S. (1996);samp. OU61927;;NEW ZEALAND / SOUTH ISLAND / SOUTHLAND / PARK VOLCANICS - PINNEY VOLCANICS;MURIHIKU TERRANE;-46;168;-46;168;;;OUTCROP;;;SUBAERIAL;VOLCANIC ROCK;TRACHYDACITE;;;;;JURASSIC;;;;ALBITISED;MINERAL / COMPONENT (INCL. GROUNDMASS);CLINOPYROXENE;;PHENOCRYST;;PRIMARY;;;;;;;;52.25;0.51;;;1.4;;;;;;;;;;;8.14;;21.99;15.12;0.41;;;;;;;;;;;0.41;;;;;;;;;;;;;;;;;;;;;;;;;;;;;;;;;;;;;;;;;;;;;;;;;;;;;;;;;;;;;;;;;;;;;;;;;;;;;;;;;;;;;;;;;;;;;;;;;;;;;;;;;;;;;;;;;;;;;;;;;;;;;;;;;;;;;;;;;;;;;;;;;;;;;;;;;;;;;;;;;;;;;;;;;;;;;;;;;;;;;;;;;;;;;;;;;;;;;;;;;;;;;;;;;;;;;;;;;;;;;
1996;[6332] COOMBS D. S. (1996);samp. OU45613;251753;NEW ZEALAND / SOUTH ISLAND / SOUTHLAND / PARK VOLCANICS - GOWAN ANDESITE;PINNEY, MURIHIKU TERRANE;-46.2;168;-46.2;168;;;OUTCROP;;;SUBAERIAL;VOLCANIC ROCK;TRACHYDACITE;;;;;JURASSIC;;;;;WHOLE ROCK;;;;;;;;;;;;;63.16;0.88;;;16.68;;;;;;;;;;2.18;;2.45;4.91;1.66;0.1;;;;;;;3.35;XRF;;;4.37;0.23;;;;;;;;;;;;;0.03;2.97;;;;;;;;;;;;;;;;;;;;;;;;;;;;;;;;;119;24;;;;8;11;66;18;;;;;103;XRF;;;426;XRF;;;21;XRF;;;202;XRF;;;6;XRF;;;;;;;;;;;;;;605;XRF;;;22;INAA;;;54;INAA;;;;27;INAA;;;;;;;;;;;;;;;;;;;;;;;;;16;XRF;;;;;9;INAA;;;5;;;;;;;;;;;;;;;;;;;;;;;;;;;;;;;;;;;;;;;;;;;;;;;;;;;;;;;;;;;;;;;;;;;;;;;;;;;;;;;;
1996;[6332] COOMBS D. S. (1996);samp. OU45624;;NEW ZEALAND / SOUTH ISLAND / SOUTHLAND / PARK VOLCANICS - PINNEY VOLCANICS;MURIHIKU TERRANE;-46;168;-46;168;;;OUTCROP;;;SUBAERIAL;VOLCANIC ROCK;TRACHYDACITE;;;;;JURASSIC;;;;;WHOLE ROCK;;;;;;;;;;;;;63.87;0.9;;;16.6;;;;;;;;;;2.18;;2.39;3.26;2.06;0.09;;;;;;;3.35;XRF;;;5.02;0.25;;;;;;;;;;;;;0.03;2.12;;;;;;;;;;;;;;;;;;;;;;;;;;;;;;;;;102;31;;;;9;17;71;20;;;;;111;XRF;;;332;XRF;;;20;XRF;;;208;XRF;;;6;XRF;;;;;;;;;;;;;;531;XRF;;;25;INAA;;;56;INAA;;;;29;INAA;;;;;;;;;;;;;;;;;;;;;;;;;16;XRF;;;;;10;INAA;;;5;;;;;;;;;;;;;;;;;;;;;;;;;;;;;;;;;;;;;;;;;;;;;;;;;;;;;;;;;;;;;;;;;;;;;;;;;;;;;;;;
1996;[6332] COOMBS D. S. (1996);samp. OU49446;;NEW ZEALAND / SOUTH ISLAND / SOUTHLAND / PARK VOLCANICS - PINNEY VOLCANICS;MURIHIKU TERRANE;-46;168;-46;168;;;OUTCROP;;;SUBAERIAL;VOLCANIC ROCK;TRACHYDACITE;;;;;JURASSIC;;;;;WHOLE ROCK;;;;;;;;;;;;;62.46;0.96;;;17.33;;;;;;;;;;2.72;;2.22;4.41;1.43;0.09;;;;;;;3.41;XRF;;;4.69;0.27;;;;;;;;;;;;;0.01;1.85;;;;;;;;;;;;;;;;;;;;;;;;;;;;;;;;;119;31;;;;8;15;85;19;;;;;111;XRF;;;478;XRF;;;22;XRF;;;204;XRF;;;7;XRF;;;;;;;;;;;;;;658;XRF;;;25;INAA;;;55;INAA;;;;27;INAA;;;;;;;;;;;;;;;;;;;;;;;;;18;XRF;;;;;11;INAA;;;4;;;;;;;;;;;;;;;;;;;;;;;;;;;;;;;;;;;;;;;;;;;;;;;;;;;;;;;;;;;;;;;;;;;;;;;;;;;;;;;;
1996;[6332] COOMBS D. S. (1996);samp. OU49448;;NEW ZEALAND / SOUTH ISLAND / SOUTHLAND / PARK VOLCANICS - PINNEY VOLCANICS;MURIHIKU TERRANE;-46;168;-46;168;;;OUTCROP;;;SUBAERIAL;VOLCANIC ROCK;TRACHYDACITE;;;;;JURASSIC;;;;;WHOLE ROCK;;;;;;;;;;;;;64.39;0.8;;;16.5;;;;;;;;;;2.31;;2.39;3.41;1.83;0.07;;;;;;;3.6;XRF;;;4.46;0.22;;;;;;;;;;;;;0.02;1.94;;;;;;;;;;;;;;;;;;;;;;;;;;;;;;;;;103;24;;;;9;16;64;20;;;;;130;XRF;;;374;XRF;;;22;XRF;;;203;XRF;;;6;XRF;;;;;;;;;;;;;;588;XRF;;;27;INAA;;;50;INAA;;;;31;INAA;;;;;;;;;;;;;;;;;;;;;;;;;18;XRF;;;;;16;INAA;;;4;;;;;;;;;;;;;;;;;;;;;;;;;;;;;;;;;;;;;;;;;;;;;;;;;;;;;;;;;;;;;;;;;;;;;;;;;;;;;;;;
1996;[6332] COOMBS D. S. (1996);samp. OU61910;;NEW ZEALAND / SOUTH ISLAND / SOUTHLAND / PARK VOLCANICS - PINNEY VOLCANICS;MURIHIKU TERRANE;-46;168;-46;168;;;OUTCROP;;;SUBAERIAL;VOLCANIC ROCK;TRACHYDACITE;;;;;JURASSIC;;;;;WHOLE ROCK;;;;;;;;;;;;;62.83;0.93;;;16.75;;;;;;;;;;2.7;;2.72;3.74;2.32;0.08;;;;;;;3.1;XRF;;;4.62;0.21;;;;;;;;;;;;;;1.65;;;;;;;;;;;;;;;;;;;;;;;;;;;;;;;;;;;;;;;;;;;;;;;;;;;;;;;;;;;;;;;;;;;;;;;;;;;;;;;;;;;;;;;;;;;;;;;;;;;;;;;;;;;;;;;;;;;;;;;;;;;;;;;;;;;;;;;;;;;;;;;;;;;;;;;;;;;;;;;;;;;;;;;;;;;;;;;;;;;;;;;;;;;;;;;;;;;;;;;;;;;;;;
1996;[6332] COOMBS D. S. (1996);samp. OU61926;251754;NEW ZEALAND / SOUTH ISLAND / SOUTHLAND / PARK VOLCANICS - GOWAN ANDESITE;PINNEY, MURIHIKU TERRANE;-46.2;168;-46.2;168;;;OUTCROP;;;SUBAERIAL;VOLCANIC ROCK;TRACHYDACITE;;;;;JURASSIC;;;;;WHOLE ROCK;;;;;;;;;;;;;63.63;0.9;;;16.71;;;;;;;;;;2.32;;2.33;3.84;1.82;0.09;;;;;;;3.62;XRF;;;4.52;0.22;;;;;;;;;;;;;;1.56;;;;;;;;;;;;;;;;;;;;;;;;;;;;;;;;;116;28;;;;15;18;61;20;;;;;112;XRF;;;405;XRF;;;20;XRF;;;188;XRF;;;9;XRF;;;;;;;;;;;;;;691;XRF;;;21;INAA;;;57;INAA;;;13;26;INAA;;;;;;;;;;;;;;;;;;;;;;;;;21;XRF;;;;;13;INAA;;;3;;;;;;;;;;;;;;;;;;;;;;;;;;;;;;;;;;;;;;;;;;;;;;;;;;;;;;;;;;;;;;;;;;;;;;;;;;;;;;;;
1996;[6332] COOMBS D. S. (1996);samp. OU61937;;NEW ZEALAND / SOUTH ISLAND / SOUTHLAND / PARK VOLCANICS - PINNEY VOLCANICS;MURIHIKU TERRANE;-46;168;-46;168;;;OUTCROP;;;SUBAERIAL;VOLCANIC ROCK;TRACHYDACITE;;;;;JURASSIC;;;;ALBITISED;WHOLE ROCK;;;;;;;;;;;;;65.67;0.94;;;15.89;;;;;;;;;;2.25;;2.26;2.69;1.45;0.07;;;;;;;3.77;XRF;;;4.72;0.29;;;;;;;;;;;;;;1.24;;;;;;;;;;;;;;;;;;;;;;;;;;;;;;;;;93;10;;;;8;6;64;22;;;;;129;XRF;;;312;XRF;;;25;XRF;;;242;XRF;;;10;XRF;;;;;;;;;;;;;;614;XRF;;;22;INAA;;;64;INAA;;;17;31;INAA;;;;;;;;;;;;;;;;;;;;;;;;;17;XRF;;;;;15;INAA;;;2;;;;;;;;;;;;;;;;;;;;;;;;;;;;;;;;;;;;;;;;;;;;;;;;;;;;;;;;;;;;;;;;;;;;;;;;;;;;;;;;
1996;[6332] COOMBS D. S. (1996);samp. OU61927;;NEW ZEALAND / SOUTH ISLAND / SOUTHLAND / PARK VOLCANICS - PINNEY VOLCANICS;MURIHIKU TERRANE;-46;168;-46;168;;;OUTCROP;;;SUBAERIAL;VOLCANIC ROCK;TRACHYDACITE;;;;;JURASSIC;;;;ALBITISED;WHOLE ROCK;;;;;;;;;;;;;67.71;0.62;;;16.55;;;;;;;;;;1.77;;1.38;1.55;0.71;0.06;;;;;;;4.2;XRF;;;5.32;0.13;;;;;;;;;;;;;;1.12;;;;;;;;;;;;;;;;;;;;;;;;;;;;;;;;;70;14;;;;9;8;60;18;;;;;137;XRF;;;275;XRF;;;20;XRF;;;203;XRF;;;8;XRF;;;;;;;;;;;;;;685;XRF;;;24;INAA;;;57;INAA;;;10;60;INAA;;;;;;;;;;;;;;;;;;;;;;;;;21;XRF;;;;;17;INAA;;;4;;;;;;;;;;;;;;;;;;;;;;;;;;;;;;;;;;;;;;;;;;;;;;;;;;;;;;;;;;;;;;;;;;;;;;;;;;;;;;;;
2000;[6404] KIRSTEIN L. A. (2000);samp. 93L78;;PARANA / SOUTHERN PARANA PROVINCE / LAVALLEJA SERIES;URUGUAY;-33;-53.5;-34;-54.5;;;OUTCROP;;;SUBAERIAL;VOLCANIC ROCK;TRACHYDACITE;;;;;CRETACEOUS;LOWER;;;;WHOLE ROCK;;;;;;;;;;;;;60.42;1.5;;;14.58;;;;;;;;;9.23;;;;3.22;0.77;0.15;;;;;;;4.42;XRF;;;3.82;0.64;;;;;;;;;;;;;;1.1;;;;;;;;;;;;;;;;;;;;;;;;;;;;;;;;;30;;;;9;7;9;;;;;;;122;XRF;;;313;XRF;;;112;XRF;;;491;XRF;;;53;XRF;;;;;;;;;;;;;;2776;XRF;;;142;INAA;;;211;INAA;;;;115;INAA;;;20.5;INAA;;;5.44;;3.01;;;;;8.84;1.38;10.9;3.51;;;;;;;;;;;;;;9.65;INAA;;;1.7;0.51204;;;;;0.71101;;;;;;;;;;;;;;;;;;;;;;;;;;;;;;;;;;;;;;;;;;;;;;;;;;;;;;;;;;;;;;;;;;;;;;;;;;
2000;[6404] KIRSTEIN L. A. (2000);samp. 93L65;;PARANA / SOUTHERN PARANA PROVINCE / LAVALLEJA SERIES;URUGUAY;-33;-53.5;-34;-54.5;;;OUTCROP;;;SUBAERIAL;VOLCANIC ROCK;TRACHYDACITE;;;;;CRETACEOUS;LOWER;;;;WHOLE ROCK;;;;;;;;;;;;;61.14;1.21;;;14.03;;;;;;;;;7.85;;;;3.02;1.15;0.16;;;;;;;4.47;XRF;;;4.04;0.45;;;;;;;;;;;;;;2.18;;;;;;;;;;;;;;;;;;;;;;;;;;;;;;;;;32;;;;9;5;14;;;;;;;136;XRF;;;344;XRF;;;59;XRF;;;475;XRF;;;56;XRF;;;;;;;;;;;;;;1623;XRF;;;70;INAA;;;142;INAA;;;;62.9;INAA;;;11.8;INAA;;;2.87;;1.72;;;;;5.93;0.91;11;3.81;;;;;;;;;;;;;;12.1;INAA;;;2;0.51199;;;;;0.71056;;;;;;;;;;;;;;;;;;;;;;;;;;;;;;;;;;;;;;;;;;;;;;;;;;;;;;;;;;;;;;;;;;;;;;;;;;
2000;[6404] KIRSTEIN L. A. (2000);samp. 93L66;;PARANA / SOUTHERN PARANA PROVINCE / LAVALLEJA SERIES;URUGUAY;-33;-53.5;-34;-54.5;;;OUTCROP;;;SUBAERIAL;VOLCANIC ROCK;TRACHYDACITE;;;;;CRETACEOUS;LOWER;;;;WHOLE ROCK;;;;;;;;;;;;;61.22;1.26;;;14.03;;;;;;;;;8.3;;;;3.01;1.31;0.15;;;;;;;4.49;XRF;;;3.69;0.49;;;;;;;;;;;;;;2.12;;;;;;;;;;;;;;;;;;;;;;;;;;;;;;;;;37;;;;12;3;11;;;;;;;143;XRF;;;206;XRF;;;58;XRF;;;459;XRF;;;57;XRF;;;;;;;;;;;;;;1198;XRF;;;69.1;INAA;;;138;INAA;;;;61.9;INAA;;;11.6;INAA;;;2.86;;1.71;;;;;5.91;0.89;10.7;3.77;;;;;;;;;;;;;;11.6;INAA;;;2.3;0.51194;;;;;0.71221;;;;;;;;;;;;;;;;;;;;;;;;;;;;;;;;;;;;;;;;;;;;;;;;;;;;;;;;;;;;;;;;;;;;;;;;;;
2000;[6404] KIRSTEIN L. A. (2000);samp. 93L64;;PARANA / SOUTHERN PARANA PROVINCE / LAVALLEJA SERIES;URUGUAY;-33;-53.5;-34;-54.5;;;OUTCROP;;;SUBAERIAL;VOLCANIC ROCK;TRACHYDACITE;;;;;CRETACEOUS;LOWER;;;;WHOLE ROCK;;;;;;;;;;;;;65.08;1.12;;;12.94;;;;;;;;;7.38;;;;2.25;1.05;0.13;;;;;;;3.32;XRF;;;4.21;0.38;;;;;;;;;;;;;;2.22;;;;;;;;;;;;;;;;;;;;;;;;;;;;;;;;;40;;;;8;3;12;;;;;;;95;XRF;;;168;XRF;;;52;XRF;;;373;XRF;;;43;XRF;;;;;;;;;;;;;;1172;XRF;;;57;INAA;;;120;INAA;;;;52.2;INAA;;;9.81;INAA;;;2.66;;1.41;;;;;4.88;0.72;8.36;2.71;;;;;;;;;;;;;;9;INAA;;;1.7;0.51188;;;;;0.71179;;;;;;;;;;;;;;;;;;;;;;;;;;;;;;;;;;;;;;;;;;;;;;;;;;;;;;;;;;;;;;;;;;;;;;;;;;
1991;[7050] VERMA S. P. (1991);samp. CAM01;;MEXICAN VOLCANIC BELTS / TRANS MEXICAN VOLCANIC BELT / MEXICO / AMEALCO CALDERA;UNIT D: AMEALCO IGNIMBRITE;20.3583;-100.118;20.3583;-100.118;;;OUTCROP;;;SUBAERIAL;VOLCANIC ROCK;TRACHYDACITE;;;;;;;;FRESH;;WHOLE ROCK;;;;;;;;;;;;;63.82;0.75;;;15.61;;;;;;;;;5.07;;;;2.73;0.89;0.142;;;;;;;4.09;XRF;;;3.84;0.204;;;;;;;;;;;;;;2.6;;;;;;;;;;;;;;;;;;;;;;;;;;;;;;;;;38;13.5;;;7.5;11.5;12.5;75;;;;;;89.8;XRF;;;250.3;XRF;;;55.1;XRF;;;420;XRF;;;15;XRF;;;;;;;;;;;;;;847;XRF;;;36.7;HPLC;;;64;HPLC;;;8.51;34.4;HPLC;;;7.07;HPLC;;;1.48;7.18;1.39;;1.43;4.35;0.6;3.94;0.65;;;;;;;;;;;;;;;;;;;;;0.512762;;;;;0.704188;;;;;;;;;;;;;;;;;;;;;;;;;;;;;;;;;;;;;;;;;;;;;;;;;;;;;;;;;;;;;;;;;;;;;;;;;;
1991;[7050] VERMA S. P. (1991);samp. CAM02;;MEXICAN VOLCANIC BELTS / TRANS MEXICAN VOLCANIC BELT / MEXICO / AMEALCO CALDERA;UNIT D: AMEALCO IGNIMBRITE;20.1722;-100.1568;20.1722;-100.1568;;;OUTCROP;;;SUBAERIAL;VOLCANIC ROCK;TRACHYDACITE;;;;;;;;FRESH;;WHOLE ROCK;;;;;;;;;;;;;62.34;0.91;;;16.08;;;;;;;;;5.88;;;;3.55;1.35;0.09;;;;;;;3.02;XRF;;;4.4;0.252;;;;;;;;;;;;;;1.66;;;;;;;;;;;;;;;;;;;;;;;;;;;;;;;;;52;16.5;;;11.5;8;8.5;76;;;;;;79.4;XRF;;;313.7;XRF;;;38;XRF;;;360;XRF;;;14;XRF;;;;;;;;;;;;;;622;XRF;;;13.1;HPLC;;;42.1;HPLC;;;3.34;14.3;HPLC;;;2.97;HPLC;;;0.75;2.95;0.5;;0.64;1.92;0.28;2.03;0.33;;;;;;;;;;;;;;;;;;;;;0.512787;;;;;0.704161;;;;;;;;;;;;;;;;;;;;;;;;;;;;;;;;;;;;;;;;;;;;;;;;;;;;;;;;;;;;;;;;;;;;;;;;;;
1991;[7050] VERMA S. P. (1991);samp. CAM13;;MEXICAN VOLCANIC BELTS / TRANS MEXICAN VOLCANIC BELT / MEXICO / AMEALCO CALDERA;UNIT D: AMEALCO IGNIMBRITE;20.1347;-100.2958;20.1347;-100.2958;;;OUTCROP;;;SUBAERIAL;VOLCANIC ROCK;TRACHYDACITE;;;;;;;;FRESH;;WHOLE ROCK;;;;;;;;;;;;;63.69;0.85;;;15.68;;;;;;;;;5.7;;;;3.26;1.21;0.089;;;;;;;3.25;XRF;;;4.7;0.289;;;;;;;;;;;;;;1.34;;;;;;;;;;;;;;;;;;;;;;;;;;;;;;;;;46;14;;;9;9;9;78;;;;;;86.2;XRF;;;272.3;XRF;;;39.1;XRF;;;395;XRF;;;14.2;XRF;;;;;;;;;;;;;;691;XRF;;;24.2;HPLC;;;47.5;HPLC;;;6.63;27.4;HPLC;;;5.62;HPLC;;;1.28;5.4;0.89;;1.02;2.89;0.42;2.8;0.53;;;;;;;;;;;;;;;;;;;;;0.512773;;;;;0.70419;;;;;;;;;;;;;;;;;;;;;;;;;;;;;;;;;;;;;;;;;;;;;;;;;;;;;;;;;;;;;;;;;;;;;;;;;;
1991;[7050] VERMA S. P. (1991);samp. CAM14;;MEXICAN VOLCANIC BELTS / TRANS MEXICAN VOLCANIC BELT / MEXICO / AMEALCO CALDERA;UNIT D: AMEALCO IGNIMBRITE;20.1333;-100.2943;20.3333;-100.2943;;;OUTCROP;;;SUBAERIAL;VOLCANIC ROCK;TRACHYDACITE;;;;;;;;FRESH;;WHOLE ROCK;;;;;;;;;;;;;61.98;0.84;;;15.84;;;;;;;;;5.53;;;;3.33;1.25;0.085;;;;;;;3.7;XRF;;;3.6;0.241;;;;;;;;;;;;;;3.37;;;;;;;;;;;;;;;;;;;;;;;;;;;;;;;;;47;9;;;9.5;9.5;12;70;;;;;;85.4;XRF;;;304.9;XRF;;;38;XRF;;;372;XRF;;;13.5;XRF;;;;;;;;;;;;;;656;XRF;;;15.1;HPLC;;;44.7;HPLC;;;4.03;16.6;HPLC;;;3.6;HPLC;;;0.93;3.7;0.59;;0.76;2.25;0.33;2.33;0.36;;;;;;;;;;;;;;;;;;;;;0.51277;;;;;0.704066;;;;;;;;;;;;;;;;;;;;;;;;;;;;;;;;;;;;;;;;;;;;;;;;;;;;;;;;;;;;;;;;;;;;;;;;;;
1991;[7050] VERMA S. P. (1991);samp. CAM01;;MEXICAN VOLCANIC BELTS / TRANS MEXICAN VOLCANIC BELT / MEXICO / AMEALCO CALDERA;UNIT D: AMEALCO IGNIMBRITE;20.3583;-100.118;20.3583;-100.118;;;OUTCROP;;;SUBAERIAL;VOLCANIC ROCK;TRACHYDACITE;;;;;;;;FRESH;;WHOLE ROCK;;;;;;;;;;;;;;;;;;;;;;;;;;;;;;;;;;;;;;;;;;;;;;;;;;;;;;;;;;;;;;;;;;;;;;;;;;;;;;;;;;;;;;;;;;;;;;;;;;;;;;;;;;;;;;;;;;;;;;;;;;;;;;;;;;;;;;;;;;;;;;;;;;;;;;;;;;;;;;;;;;;;;;;;;;;;;;;;;;;;;;;;;0.512774;;;;;;;;;;;;;;;;;;;;;;;;;;;;;;;;;;;;;;;;;;;;;;;;;;;;;;;;;;;;;;;;;;;;;;;;;;;;;;;
1991;[7050] VERMA S. P. (1991);samp. CAM02;;MEXICAN VOLCANIC BELTS / TRANS MEXICAN VOLCANIC BELT / MEXICO / AMEALCO CALDERA;UNIT D: AMEALCO IGNIMBRITE;20.1722;-100.1568;20.1722;-100.1568;;;OUTCROP;;;SUBAERIAL;VOLCANIC ROCK;TRACHYDACITE;;;;;;;;FRESH;;WHOLE ROCK;;;;;;;;;;;;;;;;;;;;;;;;;;;;;;;;;;;;;;;;;;;;;;;;;;;;;;;;;;;;;;;;;;;;;;;;;;;;;;;;;;;;;;;;;;;;;;;;;;;;;;;;;;;;;;;;;;;;;;;;;;;;;;;;;;;;;;;;;;;;;;;;;;;;;;;;;;;;;;;;;;;;;;;;;;;;;;;;;;;;;;;;;0.512769;;;;;;;;;;;;;;;;;;;;;;;;;;;;;;;;;;;;;;;;;;;;;;;;;;;;;;;;;;;;;;;;;;;;;;;;;;;;;;;
1991;[7050] VERMA S. P. (1991);samp. CAM13;;MEXICAN VOLCANIC BELTS / TRANS MEXICAN VOLCANIC BELT / MEXICO / AMEALCO CALDERA;UNIT D: AMEALCO IGNIMBRITE;20.1347;-100.2958;20.1347;-100.2958;;;OUTCROP;;;SUBAERIAL;VOLCANIC ROCK;TRACHYDACITE;;;;;;;;FRESH;;WHOLE ROCK;;;;;;;;;;;;;;;;;;;;;;;;;;;;;;;;;;;;;;;;;;;;;;;;;;;;;;;;;;;;;;;;;;;;;;;;;;;;;;;;;;;;;;;;;;;;;;;;;;;;;;;;;;;;;;;;;;;;;;;;;;;;;;;;;;;;;;;;;;;;;;;;;;;;;;;;;;;;;;;;;;;;;;;;;;;;;;;;;;;;;;;;;0.512788;;;;;;;;;;;;;;;;;;;;;;;;;;;;;;;;;;;;;;;;;;;;;;;;;;;;;;;;;;;;;;;;;;;;;;;;;;;;;;;
1991;[7050] VERMA S. P. (1991);samp. CAM14;;MEXICAN VOLCANIC BELTS / TRANS MEXICAN VOLCANIC BELT / MEXICO / AMEALCO CALDERA;UNIT D: AMEALCO IGNIMBRITE;20.1333;-100.2943;20.3333;-100.2943;;;OUTCROP;;;SUBAERIAL;VOLCANIC ROCK;TRACHYDACITE;;;;;;;;FRESH;;WHOLE ROCK;;;;;;;;;;;;;;;;;;;;;;;;;;;;;;;;;;;;;;;;;;;;;;;;;;;;;;;;;;;;;;;;;;;;;;;;;;;;;;;;;;;;;;;;;;;;;;;;;;;;;;;;;;;;;;;;;;;;;;;;;;;;;;;;;;;;;;;;;;;;;;;;;;;;;;;;;;;;;;;;;;;;;;;;;;;;;;;;;;;;;;;;;0.512768;;;;;0.704063;;;;;;;;;;;;;;;;;;;;;;;;;;;;;;;;;;;;;;;;;;;;;;;;;;;;;;;;;;;;;;;;;;;;;;;;;;
1991;[7050] VERMA S. P. (1991);samp. CAM14;;MEXICAN VOLCANIC BELTS / TRANS MEXICAN VOLCANIC BELT / MEXICO / AMEALCO CALDERA;UNIT D: AMEALCO IGNIMBRITE;20.1333;-100.2943;20.3333;-100.2943;;;OUTCROP;;;SUBAERIAL;VOLCANIC ROCK;TRACHYDACITE;;;;;;;;FRESH;;WHOLE ROCK;;;;;;;;;;;;;;;;;;;;;;;;;;;;;;;;;;;;;;;;;;;;;;;;;;;;;;;;;;;;;;;;;;;;;;;;;;;;;;;;;;;;;;;;;;;;;;;;;;;;;;;;;;;;;;;;;;;;;;;;;;;;;;;;;;;;;;;;;;;;;;;;;;;;;;;;;;;;;;;;;;;;;;;;;;;;;;;;;;;;;;;;;;;;;;0.704062;;;;;;;;;;;;;;;;;;;;;;;;;;;;;;;;;;;;;;;;;;;;;;;;;;;;;;;;;;;;;;;;;;;;;;;;;;
2005;[7504] LUSTRINO M. (2005);samp. MAR59;;PARANA / SOUTHERN PARANA PROVINCE / VALLE CHICO IGNEOUS COMPLEX;URUGUAY;-33.98;-54.58;-33.98;-54.58;;;OUTCROP;;;SUBAERIAL;VOLCANIC ROCK;TRACHYDACITE;;;;;CRETACEOUS;LOWER;;;;WHOLE ROCK;;;;;;;;;;;;;64.61;1.14;;;14.18;;;;;;;;;;3.67;6.87;3.56;3.11;1.88;0.13;;;;;;;3.86;XRF;;;3.73;0.48;;;;;;;;;;;;;;1.11;;;;;;;;;;;;;;;;;;;;;;;;;;;;;;;;;;;;;;;;;;;;;;120;XRF;;;239;XRF;;;54;XRF;;;465;XRF;;;53;XRF;;;;;;;;;;;;;;1315;XRF;;;69;XRF;;;132;XRF;;;;63;XRF;;;;;;;;;;;;;;;;;;;;;;;;;;;;;;;;;;;;;;;;;;;;;;;;;;;;;;;;;;;;;;;;;;;;;;;;;;;;;;;;;;;;;;;;;;;;;;;;;;;;;;;;;;;;;;;;;;;
2005;[7504] LUSTRINO M. (2005);samp. MAR45;;PARANA / SOUTHERN PARANA PROVINCE / VALLE CHICO IGNEOUS COMPLEX;URUGUAY;-33.98;-54.58;-33.98;-54.58;;;OUTCROP;;;SUBAERIAL;VOLCANIC ROCK;TRACHYDACITE;;;;;CRETACEOUS;LOWER;;;;WHOLE ROCK;;;;;;;;;;;;;66.95;0.93;;;14;;;;;;;;;;2.44;4.98;2.78;2.99;1.58;0.11;;;;;;;3.88;XRF;;;4.11;0.46;;;;;;;;;;;;;;1.12;;;;;;;;;;;;;;;;;;;;;;;;;;;;;;;;;;;;;;;;112.4;22.2;;;;;127;XRF;133.7;ICPMS;187;XRF;212.1;ICPMS;53;XRF;56.1;ICPMS;392;XRF;418;ICPMS;53;XRF;60.4;ICPMS;;;;;;;;3.7;;;1.2;1146;XRF;1168;ICPMS;59;XRF;74.96;ICPMS;124;XRF;143.27;ICPMS;14.18;55;XRF;57.45;ICPMS;11.3;ICPMS;;;2.41;10.22;1.58;9.7;2.03;6.07;0.91;5.8;0.83;11.01;4.34;;;;;;;0.39;26.11;ICPMS;;;;;12.9;ICPMS;;;3.15;;;;;;;;;;;;;;;;;;;;;;;;;;;;;;;;;;;;;;;;;;;;;;;;;;;;;;;;;;;;;;;;;;;;;;;;;;;;;;;;
2005;[7504] LUSTRINO M. (2005);samp. MAR59;;PARANA / SOUTHERN PARANA PROVINCE / VALLE CHICO IGNEOUS COMPLEX;URUGUAY;-33.98;-54.58;-33.98;-54.58;;;OUTCROP;;;SUBAERIAL;VOLCANIC ROCK;TRACHYDACITE;;;;;CRETACEOUS;LOWER;;;;MINERAL / COMPONENT (INCL. GROUNDMASS);PLAGIOCLASE;;;;PRIMARY;;;;;;;;63.14;;;;22.74;;;;;;;;;;;0.4;;4.3;;;0.53;;;;;;1.78;EMP (EPMA);;;7.5;;;;;;;;;;;;;;;;;;;;;;;;;;;;;;;;;;;;;;;;;;;;;;;;;;;;;;;;;;;;;;;;;;;;;;;;;;;;;;;;;;;;;;;;;;;;;;;;;;;;;;;;;;;;;;;;;;;;;;;;;;;;;;;;;;;;;;;;;;;;;;;;;;;;;;;;;;;;;;;;;;;;;;;;;;;;;;;;;;;;;;;;;;;;;67.9;21.5;;;;;;10.6;;;;;;;;;;;;;;;;;;;;;;;;;