Year;CITATION;SAMPLE NAME;UNIQUE_ID;LOCATION;LOCATION COMMENT;LATITUDE (MIN.);LONGITUDE (MIN.);LATITUDE (MAX.);LONGITUDE (MAX.);ELEVATION (MIN.);ELEVATION (MAX.);SAMPLING TECHNIQUE;DRILLING DEPTH (MIN.);DRILLING DEPTH (MAX.);LAND/SEA (SAMPLING);ROCK TYPE;ROCK NAME;ROCK TEXTURE;SAMPLE COMMENT;AGE (MIN.);AGE (MAX.);GEOLOGICAL AGE;GEOLOGICAL AGE PREFIX;ERUPTION YEAR;ALTERATION;ALTERATION TYPE;TYPE OF MATERIAL;MINERAL / COMPONENT;SPOT (MINERAL);CRYSTAL;RIM / CORE (MINERAL GRAINS);PRIMARY/SECONDARY;INCLUSION TYPE;SPOT (INCLUSION);MINERAL (INCLUSION);RIM / CORE (INCLUSION);HOSTMINERAL (INCLUSION);HEATING;HEATING TEMPERATURE (?C);SIO2(WT%);TIO2(WT%);ZRO2(WT%);B2O3(WT%);AL2O3(WT%);CR2O3(WT%);LA2O3(WT%);CE2O3(WT%);Y2O3(WT%);V2O3(WT%);NB2O3(WT%);TA2O5(WT%);WO3(WT%);FE2O3T(WT%);FE2O3(WT%);FEOT(WT%);FEO(WT%);CAO(WT%);MGO(WT%);MNO(WT%);BAO(WT%);SRO(WT%);NIO(WT%);ZNO(WT%);CS2O(WT%);RB2O(WT%);K2O(WT%);;;;NA2O(WT%);P2O5(WT%);H2O(WT%);;;;H2OP(WT%);H2OM(WT%);CO2(WT%);C(WT%);F(WT%);CL(WT%);SO2(WT%);SO3(WT%);S(WT%);LOI(WT%);AL(WT%);TI(WT%);FE(WT%);MG(WT%);CA(WT%);K(WT%);NA(WT%);LI(PPM);BE(PPM);B(PPM);C(PPM);F(PPM);NA(PPM);MG(PPM);AL(PPM);P(PPM);S(PPM);CL(PPM);AR40(AT/G);AR40(CCMSTP/G);AR40(MOL/G);AR40(PPB);K(PPM);CA(PPM);SC(PPM);;;;TI(PPM);;;;V(PPM);CR(PPM);MN(PPM);FE(PPM);CO(PPM);NI(PPM);CU(PPM);ZN(PPM);GA(PPM);GE(PPM);AS(PPM);SE(PPM);BR(PPM);RB(PPM): altern. values or methods;;;;SR(PPM): altern. values or methods;;;;Y(PPM): altern. values or methods;;;;ZR(PPM): altern. values or methods;;;;NB(PPM): altern. values or methods;;;;MO(PPM): altern. values or methods;;;;AG(PPM);CD(PPM);IN(PPM);SN(PPM);SB(PPM);TE(PPM);CS(PPM);BA(PPM): altern. values or methods;;;;LA(PPM): altern. values or methods;;;;CE(PPM): altern. values or methods;;;;PR(PPM);ND(PPM): altern. values or methods;;;;SM(PPM): altern. values or methods;;;;EU(PPM);GD(PPM);TB(PPM);DY(PPM);HO(PPM);ER(PPM);TM(PPM);YB(PPM);LU(PPM);HF(PPM);TA(PPM);W(PPM);RE(PPM);AU(PPM);AU(PPB);HG(PPM);HG(PPB);TL(PPM);PB(PPM): altern. values or methods;;;;PB206(PPM);BI(PPM);TH(PPM): altern. values or methods;;;;U(PPM);ND143_ND144;ND143_ND144_INI;EPSILON_ND;EPSILON_ND_INI;SM147_ND144;SR87_SR86;SR87_SR86_INI;EPSILON_SR;EPSILON_SR_INI;RB87_SR86;PB206_PB204;PB206_PB204_INI;PB206_PB207;PB206_PB208;PB207_PB204;PB207_PB204_INI;PB207_PB206;PB208_PB204;PB208_PB204_INI;PB208_PB206;HF176_HF177;HF176_HF177_INI;EPSILON_HF_INI;LU176_HF177;YB176_HF177;AR36_AR39;AR36_AR40;AR37_AR39;AR38_AR39;AR39_AR40;AR40_AR36;AR40_AR39;PB206_U238;PB207_U235;PB208_TH232;TH232_PB204;TH232_U238;U235_PB204;U238_PB204;U238_PB206;D7LI(VS LSVEC);D18O(PER MIL);D18O(VS SMOW);D18O(VS VSMOW);D56FE(VS IRMM-014);D57FE(VS IRMM-014);DD(VS SMOW);ALBITE(MOL%);ANORTHITE(MOL%);CA OLIVINE(MOL%);ENSTATITE(MOL%);FAYALITE(MOL%);FORSTERITE(MOL%);FERROSILITE(MOL%);ORTHOCLASE(MOL%);TEPHROITE(MOL%);ULVOSPINEL(MOL%);WOLLASTONITE(MOL%);AGE(KA): altern. values or methods;;;;AGE(MA): altern. values or methods;;;;;;;;AGE_PB207_PB206(MA);AGE_PB207_U235(MA);AGE_PB206_U238(MA): altern. values or methods;;;;;;AGE_PB208_TH232(MA);
2017;[20736] LIU DONG(2017)  [GeoReM [10597] ];samp. YR1105;;CENTRAL ASIAN FOLDBELT - CENOZOIC/QUATERNARY / CHINA - CENOZOIC/QUATERNARY / TIBET;YARE;31.905;81.17;31.905;81.17;4900;4900;OUTCROP;;;SUBAERIAL;VOLCANIC ROCK;TRACHYDACITE;;;;;MIOCENE;;;;;WHOLE ROCK;;;;;;;;;;;;;67.8;0.61;;;16.1;;;;;;;;;2.78;;;;1.67;0.83;0.02;;;;;;;5.11;XRF;;;3.1;0.18;;;;;;;;;;;;;;1.55;;;;;;;;38.2;6.91;;;;;;;;;;;;;;;;6.23;Q_ICPMS;;;;;;;45.1;23.1;;;4.21;4.7;8.69;66.7;33.9;;;;;416;Q_ICPMS;;;230;Q_ICPMS;;;14.8;Q_ICPMS;;;316;Q_ICPMS;;;10.8;Q_ICPMS;;;;;;;;;;;;;25.1;1462;Q_ICPMS;;;97.6;Q_ICPMS;;;201;Q_ICPMS;;;22.1;79.7;Q_ICPMS;;;12.1;Q_ICPMS;;;1.46;6.62;0.69;2.98;0.49;1.39;0.19;1.12;0.16;9.39;0.75;;;;;;;;48.1;Q_ICPMS;;;;;48.1;Q_ICPMS;;;7.62;0.511959;;;;;0.723609;;;;;;;;;;;;;;;;;;;;;;;;;;;;;;;;;;;;;;;;;;;;;;;;;;;;;;;;;;;;;;;;;;;;;;;;;;
2017;[20736] LIU DONG(2017)  [GeoReM [10597] ];samp. YR1109;;CENTRAL ASIAN FOLDBELT - CENOZOIC/QUATERNARY / CHINA - CENOZOIC/QUATERNARY / TIBET;YARE;31.3722;84.391;31.3722;84.391;4824;4824;OUTCROP;;;SUBAERIAL;VOLCANIC ROCK;TRACHYDACITE;;;;;MIOCENE;;;;;WHOLE ROCK;;;;;;;;;;;;;64.7;0.62;;;15.5;;;;;;;;;3.13;;;;2.56;1.57;0.08;;;;;;;5.96;XRF;;;2.62;0.25;;;;;;;;;;;;;;2.53;;;;;;;;55.4;8.11;;;;;;;;;;;;;;;;7.1;Q_ICPMS;;;;;;;58.7;49.1;;;8.36;14.6;11.3;85.8;28.8;;;;;388;Q_ICPMS;;;326;Q_ICPMS;;;11.2;Q_ICPMS;;;351;Q_ICPMS;;;14;Q_ICPMS;;;;;;;;;;;;;25.8;910;Q_ICPMS;;;83;Q_ICPMS;;;167;Q_ICPMS;;;18.2;64.5;Q_ICPMS;;;10.1;Q_ICPMS;;;1.59;5.58;0.57;2.31;0.36;0.98;0.14;0.95;0.11;9.79;1.05;;;;;;;;84.2;Q_ICPMS;;;;;38.4;Q_ICPMS;;;9.72;0.511972;;;;;0.730714;;;;;;;;;;;;;;;;;;;;;;;;;;;;;;;;;;;;;;;;;;;;;;;;;;;;;;;;;;;;;;;;;;;;;;;;;;
2017;[20736] LIU DONG(2017)  [GeoReM [10597] ];samp. YR1109;;CENTRAL ASIAN FOLDBELT - CENOZOIC/QUATERNARY / CHINA - CENOZOIC/QUATERNARY / TIBET;YARE;31.3722;84.391;31.3722;84.391;4824;4824;OUTCROP;;;SUBAERIAL;VOLCANIC ROCK;TRACHYDACITE;;;;;MIOCENE;;;;;WHOLE ROCK;;;;;;;;;;;;;64.9;0.62;;;15.5;;;;;;;;;3.13;;;;2.56;1.57;0.08;;;;;;;5.99;XRF;;;2.61;0.25;;;;;;;;;;;;;;2.69;;;;;;;;;;;;;;;;;;;;;;;;;;;;;;;;;;;;;;;;;;;;;;;;;;;;;;;;;;;;;;;;;;;;;;;;;;;;;;;;;;;;;;;;;;;;;;;;;;;;;;;;;;;;;;;;;;;;;;;;;;;;;;;;;;;;;;;;;;;;;;;;;;;;;;;;;;;;;;;;;;;;;;;;;;;;;;;;;;;;;;;;;;;;;;;;;;;;;;;;;;;;;;
2017;[20736] LIU DONG(2017)  [GeoReM [10597] ];samp. YR1113;;CENTRAL ASIAN FOLDBELT - CENOZOIC/QUATERNARY / CHINA - CENOZOIC/QUATERNARY / TIBET;YARE;31.3722;84.391;31.3722;84.391;4824;4824;OUTCROP;;;SUBAERIAL;VOLCANIC ROCK;TRACHYDACITE;;;;;MIOCENE;;;;;WHOLE ROCK;;;;;;;;;;;;;64.9;0.62;;;15.5;;;;;;;;;2.86;;;;2.96;0.84;0.07;;;;;;;5.95;XRF;;;2.68;0.25;;;;;;;;;;;;;;2.81;;;;;;;;34.9;7.95;;;;;;;;;;;;;;;;7.36;Q_ICPMS;;;;;;;56.7;54.4;;;7.43;12.2;12.3;76;28.6;;;;;382;Q_ICPMS;;;389;Q_ICPMS;;;11.4;Q_ICPMS;;;352;Q_ICPMS;;;14;Q_ICPMS;;;;;;;;;;;;;24.5;935;Q_ICPMS;;;85.2;Q_ICPMS;;;177;Q_ICPMS;;;18.6;66.6;Q_ICPMS;;;10.1;Q_ICPMS;;;1.62;5.77;0.58;2.48;0.38;1.01;0.15;0.94;0.12;9.93;1.05;;;;;;;;76.4;Q_ICPMS;;;;;38.2;Q_ICPMS;;;10.2;0.511967;;;;;0.729528;;;;;;;;;;;;;;;;;;;;;;;;;;;;;;;;;;;;;;;;;;;;;;;;;;;;;;;;;;;;;;;;;;;;;;;;;;
2017;[20865] LEHTONEN E. (2017);samp. A2223;;BALTIC SHIELD - ARCHEAN / KARELIAN PROVINCE - GREENSTONE BELTS / SUOMUSSALMI GREENSTONE BELT;AHVENLAHTI, KIANNANNIEMI REGION;65.1324;29.1758;65.1324;29.1758;;;OUTCROP;;;SUBAERIAL;VOLCANIC ROCK;TRACHYDACITE;;;;;ARCHEAN;MESO;;;;WHOLE ROCK;;;;;;;;;;;;;65.2;0.5;;;17.5;;;;;;;;;4.7;;;;1.1;2.9;0.05;;;;;;;0.5;XRF;;;7.3;0.1;;;;;;;;;;;;;;;;;;;;;;27;;;;;;;;;;;;;;;;;5.5;ICPMS;;;3130;ICPMS;;;81;49;;;21;27;190;94;;;;;;16;ICPMS;;;;;;;7.4;ICPMS;;;95;ICPMS;;;;;;;;;;;;;;;;;;253;ICPMS;;;10;ICPMS;;;20;ICPMS;;;2.4;10;ICPMS;;;2.2;ICPMS;;;0.85;2.1;0.29;1.47;0.3;0.86;0.11;;0.1;;;;;;;;;;;;;;;;3;ICPMS;;;1.3;;;;;;;;;;;;;;;;;;;;;;;;;;;;;;;;;;;;;;;;;;;;;;;;;;;;;;;;;;;;;;;;;;;;;;;;;;;;;;;;
2017;[20865] LEHTONEN E. (2017);samp. A2223;;BALTIC SHIELD - ARCHEAN / KARELIAN PROVINCE - GREENSTONE BELTS / SUOMUSSALMI GREENSTONE BELT;AHVENLAHTI, KIANNANNIEMI REGION;65.1324;29.1758;65.1324;29.1758;;;OUTCROP;;;SUBAERIAL;VOLCANIC ROCK;TRACHYDACITE;;;;;ARCHEAN;MESO;;;;MINERAL / COMPONENT (INCL. GROUNDMASS);ZIRCON;;;;PRIMARY;;;;;;;;;;;;;;;;;;;;;;;;;;;;;;;;;;;;;;;;;;;;;;;;;;;;;;;;;;;;;;;;;;;;;;;;;;;;;;;;;;;;;;;;;;;;;;;;;;;;;;;;;;;;;;;;;;;;;;;;;;;;;;;;;;;;;;;;;;;;;;;;;;;;;;;;;;;;;;;;;;;;;;;;;104.345846795191;SIMS;;;;;79.131712884312;SIMS;;;139.944069344641;;;;;;;;;;;95891.4002291218;;;;;;0.201908796792526;;;;;;;;;;;;;;;;0.548849204144401;15.2795144773563;;;;;;;;;;;;;;;;;;;;;;;;;;;;;;;;;;;;;2841.68837949792;2832.82483309281;2820.38489115455;PB206_U238 AGE;;;;;;
2017;[20865] LEHTONEN E. (2017);samp. A2223;;BALTIC SHIELD - ARCHEAN / KARELIAN PROVINCE - GREENSTONE BELTS / SUOMUSSALMI GREENSTONE BELT;AHVENLAHTI, KIANNANNIEMI REGION;65.1324;29.1758;65.1324;29.1758;;;OUTCROP;;;SUBAERIAL;VOLCANIC ROCK;TRACHYDACITE;;;;;ARCHEAN;MESO;;;;MINERAL / COMPONENT (INCL. GROUNDMASS);ZIRCON;;;;PRIMARY;;;;;;;;;;;;;;;;;;;;;;;;;;;;;;;;;;;;;;;;;;;;;;;;;;;;;;;;;;;;;;;;;;;;;;;;;;;;;;;;;;;;;;;;;;;;;;;;;;;;;;;;;;;;;;;;;;;;;;;;;;;;;;;;;;;;;;;;;;;;;;;;;;;;;;;;;;;;;;;;;;;;;;;;;56.528116792546;SIMS;;;;;43.6318036185336;SIMS;;;80.5858703548747;;;;;;;;;;;3838.05264764896;;;;;;0.20057705966807;;;;;;;;;;;;;;;;0.532749467228558;14.7334875127468;;;;;;;;;;;;;;;;;;;;;;;;;;;;;;;;;;;;;2830.8976668988;2798.18388933785;2753.02601172427;PB206_U238 AGE;;;;;;
2017;[20865] LEHTONEN E. (2017);samp. A2223;;BALTIC SHIELD - ARCHEAN / KARELIAN PROVINCE - GREENSTONE BELTS / SUOMUSSALMI GREENSTONE BELT;AHVENLAHTI, KIANNANNIEMI REGION;65.1324;29.1758;65.1324;29.1758;;;OUTCROP;;;SUBAERIAL;VOLCANIC ROCK;TRACHYDACITE;;;;;ARCHEAN;MESO;;;;MINERAL / COMPONENT (INCL. GROUNDMASS);ZIRCON;;;;PRIMARY;;;;;;;;;;;;;;;;;;;;;;;;;;;;;;;;;;;;;;;;;;;;;;;;;;;;;;;;;;;;;;;;;;;;;;;;;;;;;;;;;;;;;;;;;;;;;;;;;;;;;;;;;;;;;;;;;;;;;;;;;;;;;;;;;;;;;;;;;;;;;;;;;;;;;;;;;;;;;;;;;;;;;;;;;130.916471673832;SIMS;;;;;88.5134242047117;SIMS;;;178.010308321868;;;;;;;;;;;11319.9354476136;;;;;;0.201920974871453;;;;;;;;;;;;;;;;0.547971475065141;15.2559993215388;;;;;;;;;;;;;;;;;;;;;;;;;;;;;;;;;;;;;2841.78667856338;2831.35708956696;2816.73068839487;PB206_U238 AGE;;;;;;
2017;[20865] LEHTONEN E. (2017);samp. A2223;;BALTIC SHIELD - ARCHEAN / KARELIAN PROVINCE - GREENSTONE BELTS / SUOMUSSALMI GREENSTONE BELT;AHVENLAHTI, KIANNANNIEMI REGION;65.1324;29.1758;65.1324;29.1758;;;OUTCROP;;;SUBAERIAL;VOLCANIC ROCK;TRACHYDACITE;;;;;ARCHEAN;MESO;;;;MINERAL / COMPONENT (INCL. GROUNDMASS);ZIRCON;;;;PRIMARY;;;;;;;;;;;;;;;;;;;;;;;;;;;;;;;;;;;;;;;;;;;;;;;;;;;;;;;;;;;;;;;;;;;;;;;;;;;;;;;;;;;;;;;;;;;;;;;;;;;;;;;;;;;;;;;;;;;;;;;;;;;;;;;;;;;;;;;;;;;;;;;;;;;;;;;;;;;;;;;;;;;;;;;;;116.503503859713;SIMS;;;;;68.338400785819;SIMS;;;160.638644425446;;;;;;;;;;;199247.455503319;;;;;;0.201406;;;;;;;;;;;;;;;;0.54923991964003;15.2523152793622;;;;;;;;;;;;;;;;;;;;;;;;;;;;;;;;;;;;;2837.62396127999;2831.12695065908;2822.01087015316;PB206_U238 AGE;;;;;;
2017;[20865] LEHTONEN E. (2017);samp. A2223;;BALTIC SHIELD - ARCHEAN / KARELIAN PROVINCE - GREENSTONE BELTS / SUOMUSSALMI GREENSTONE BELT;AHVENLAHTI, KIANNANNIEMI REGION;65.1324;29.1758;65.1324;29.1758;;;OUTCROP;;;SUBAERIAL;VOLCANIC ROCK;TRACHYDACITE;;;;;ARCHEAN;MESO;;;;MINERAL / COMPONENT (INCL. GROUNDMASS);ZIRCON;;;;PRIMARY;;;;;;;;;;;;;;;;;;;;;;;;;;;;;;;;;;;;;;;;;;;;;;;;;;;;;;;;;;;;;;;;;;;;;;;;;;;;;;;;;;;;;;;;;;;;;;;;;;;;;;;;;;;;;;;;;;;;;;;;;;;;;;;;;;;;;;;;;;;;;;;;;;;;;;;;;;;;;;;;;;;;;;;;;110.977105582436;SIMS;;;;;61.0106539837659;SIMS;;;153.422778234594;;;;;;;;;;;147525.819738747;;;;;;0.202106;;;;;;;;;;;;;;;;0.551529776185007;15.3691357212658;;;;;;;;;;;;;;;;;;;;;;;;;;;;;;;;;;;;;2843.27933007613;2838.39934354214;2831.53196835649;PB206_U238 AGE;;;;;;
2017;[20865] LEHTONEN E. (2017);samp. A2223;;BALTIC SHIELD - ARCHEAN / KARELIAN PROVINCE - GREENSTONE BELTS / SUOMUSSALMI GREENSTONE BELT;AHVENLAHTI, KIANNANNIEMI REGION;65.1324;29.1758;65.1324;29.1758;;;OUTCROP;;;SUBAERIAL;VOLCANIC ROCK;TRACHYDACITE;;;;;ARCHEAN;MESO;;;;MINERAL / COMPONENT (INCL. GROUNDMASS);ZIRCON;;;;PRIMARY;;;;;;;;;;;;;;;;;;;;;;;;;;;;;;;;;;;;;;;;;;;;;;;;;;;;;;;;;;;;;;;;;;;;;;;;;;;;;;;;;;;;;;;;;;;;;;;;;;;;;;;;;;;;;;;;;;;;;;;;;;;;;;;;;;;;;;;;;;;;;;;;;;;;;;;;;;;;;;;;;;;;;;;;;87.5037701558862;SIMS;;;;;46.9436717570686;SIMS;;;121.686889890455;;;;;;;;;;;123931.459855299;;;;;;0.201974072434721;;;;;;;;;;;;;;;;0.549305553490546;15.2971627340723;;;;;;;;;;;;;;;;;;;;;;;;;;;;;;;;;;;;;2842.21519232335;2833.92499087906;2822.2839679589;PB206_U238 AGE;;;;;;
2017;[20901] BENAOUDA R. (2017);samp. B63;;ATLAS MOUNTAINS / ATLAS MOUNTAINS / ANTI-ATLAS / JEBEL BOHO COMPLEX;;30.43;-6.81;30.43;-6.81;;;OUTCROP;;;SUBAERIAL;VOLCANIC ROCK;TRACHYDACITE;;;;;CAMBRIAN;;;;;WHOLE ROCK;;;;;;;;;;;;;61.9;0.46;;;15.42;;;;;;;;;8.27;;;;1.15;0.47;0.06;;;;;;;5.08;XRF;;;5.97;0.05;;;;;;;;;;;;;;1.89;;;;;;;;;;;;;;;;;;;;;;;;;;;;;;;;;;;;;0.4;;4.3;29;30.8;;1.6;;;75.4;ICPMS;;;35.5;ICPMS;;;50.3;ICPMS;;;456;ICPMS;;;78.8;ICPMS;;;1.9;ICPMS;;;;;;;;;0.4;144;ICPMS;;;67.8;ICPMS;;;132;ICPMS;;;16;63.6;ICPMS;;;11;ICPMS;;;1.45;9.81;1.67;9.67;1.97;5.5;0.82;5.04;0.8;11.1;5.4;;;;;;;;2.9;ICPMS;;;;;12.1;ICPMS;;;5.6;;;;;;;;;;;;;;;;;;;;;;;;;;;;;;;;;;;;;;;;;;;;;;;;;;;;;;;;;;;;;;;;;;;;;;;;;;;;;;;;
2017;[20901] BENAOUDA R. (2017);samp. B16;;ATLAS MOUNTAINS / ATLAS MOUNTAINS / ANTI-ATLAS / JEBEL BOHO COMPLEX;;30.43;-6.81;30.43;-6.81;;;OUTCROP;;;SUBAERIAL;VOLCANIC ROCK;TRACHYDACITE;;;;;CAMBRIAN;;;;;WHOLE ROCK;;;;;;;;;;;;;61.9;0.53;;;16.59;;;;;;;;;5.16;;;;1.29;0.74;0.06;;;;;;;5.42;XRF;;;5.66;0.14;;;;;;;;;;;;;;1.69;;;;;;;;;;;;;;;;;;;;;;;;;;;;;;;;;;;;;2.7;;10.5;21;24.1;;0.8;;;107;ICPMS;;;153;ICPMS;;;47.7;ICPMS;;;572;ICPMS;;;80.3;ICPMS;;;1.6;ICPMS;;;;;;;;;0.6;619;ICPMS;;;73.7;ICPMS;;;145;ICPMS;;;16.2;60;ICPMS;;;11.2;ICPMS;;;2.46;9.69;1.52;9.6;1.93;5.54;0.8;5.12;0.75;14.6;5;;;;;;;;2.5;ICPMS;;;;;14.4;ICPMS;;;4;;;;;;;;;;;;;;;;;;;;;;;;;;;;;;;;;;;;;;;;;;;;;;;;;;;;;;;;;;;;;;;;;;;;;;;;;;;;;;;;
2017;[20901] BENAOUDA R. (2017);samp. B62;;ATLAS MOUNTAINS / ATLAS MOUNTAINS / ANTI-ATLAS / JEBEL BOHO COMPLEX;;30.43;-6.81;30.43;-6.81;;;OUTCROP;;;SUBAERIAL;VOLCANIC ROCK;TRACHYDACITE;;;;;CAMBRIAN;;;;;WHOLE ROCK;;;;;;;;;;;;;62.05;0.4;;;15.06;;;;;;;;;6.26;;;;1.09;0.55;0.24;;;;;;;6.64;XRF;;;4.63;0.05;;;;;;;;;;;;;;0.95;;;;;;;;;;;;;;;;;;;;;;;;;;;;;;;;;;;;;0.6;;4.5;33;30.2;;3.6;;;127;ICPMS;;;52.6;ICPMS;;;53.4;ICPMS;;;528;ICPMS;;;96.2;ICPMS;;;1.2;ICPMS;;;;;;;;;0.4;191;ICPMS;;;70.3;ICPMS;;;140;ICPMS;;;17.6;67.5;ICPMS;;;12.6;ICPMS;;;1.19;11.2;1.83;9.96;2.02;5.49;0.77;5.72;0.83;12.5;6.5;;;;;;;;6.8;ICPMS;;;;;14.6;ICPMS;;;3.1;;;;;;;;;;;;;;;;;;;;;;;;;;;;;;;;;;;;;;;;;;;;;;;;;;;;;;;;;;;;;;;;;;;;;;;;;;;;;;;;
2017;[20991] IBANES O. D. (2017);samp. CT-10-001;;ANDEAN ARC / CENTRAL ANDEAN VOLCANIC ZONE / ARGENTINA / TIPORCO VOLCANIC COMPLEX;SIERRA PAMPEANAS DE SAN LUIS;-32.95;-65.7833;-32.95;-65.7833;;;OUTCROP;;;SUBAERIAL;VOLCANIC ROCK;TRACHYDACITE;;HIGH-K CALCALKALINE;;;NEOGENE;;;;;WHOLE ROCK;;;;;;;;;;;;;62.33;0.47;;;17.89;;;;;;;;;4.02;;;;3.94;1.1;0.15;;;;;;;3.97;NOT;;;5.84;0.28;;;;;;;;;;;;;;;;;;;;;;;;;;;;;;;;;;;;;;;;;;;;;;;122;0;;;21;0;;80;;;;;;78;NOT;;;2379;NOT;;;16;NOT;;;145;NOT;;;17;NOT;;;;;;;;;;;;;3.5;1277;NOT;;;42.1;NOT;;;75.6;NOT;;;8.73;31.8;NOT;;;5.5;NOT;;;1.59;3.7;0.5;2.8;0.5;1.6;0.25;1.7;0.28;3.9;1.1;;;;;;;;;;;;;;9.7;NOT;;;4.6;;;;;;;;;;;;;;;;;;;;;;;;;;;;;;;;;;;;;;;;;;;;;;;;;;;;;;;;;;;;;;;;;;;;;;;;;;;;;;;;
2017;[21078] HE XIAO-FANG (2017);samp. BJ-5/1;;NANDALING - YANSHAN BELT / BEIJING PROVINCE / NANDALING FORMATION;HUANGTAI VILLAGE;40.0028;115.9625;40.0028;115.9625;;;OUTCROP;;;SUBAERIAL;VOLCANIC ROCK;TRACHYDACITE;;;;;JURASSIC;;;;;WHOLE ROCK;;;;;;;;;;;;;64.48;0.41;;;17.18;;;;;;;;;;2.33;2.86;0.76;3.31;0.72;0.04;;;;;;;2.66;XRF;;;6.27;0.19;;;;;;;;;;;;;;1.72;;;;;;;;7.33;1.73;;;;;;;;;;;;;;;;3.54;ICPMS;;;2711;ICPMS;;;32.3;11.8;361;;4;5.88;9.7;60.5;16.1;;2.12;;;40.7;ICPMS;;;591;ICPMS;;;14.4;ICPMS;;;254;ICPMS;;;10.7;ICPMS;;;1.04;ICPMS;;;;0.05;0;1.21;0.09;;1.58;1848;ICPMS;;;43;ICPMS;;;70.3;ICPMS;;;9.34;33.2;ICPMS;;;4.9;ICPMS;;;1.26;3.3;0.53;2.49;0.51;1.57;0.21;1.42;0.23;5.99;0.52;0.25;;;;;;0.24;9.01;ICPMS;;;;0;4.76;ICPMS;;;1.01;;;;;;;;;;;;;;;;;;;;;;;;;;;;;;;;;;;;;;;;;;;;;;;;;;;;;;;;;;;;;;;;;;;;;;;;;;;;;;;;
2017;[21078] HE XIAO-FANG (2017);samp. BJ-5/1;;NANDALING - YANSHAN BELT / BEIJING PROVINCE / NANDALING FORMATION;HUANGTAI VILLAGE;40.0028;115.9625;40.0028;115.9625;;;OUTCROP;;;SUBAERIAL;VOLCANIC ROCK;TRACHYDACITE;;;;;JURASSIC;;;;;MINERAL / COMPONENT (INCL. GROUNDMASS);ZIRCON;BJ5-1-03;;;PRIMARY;;;;;;;;;;;;;;;;;;;;;;;;;;;;;;;;;;;;;;;;;;;;;;;;;;;;;;;;;;;;;;;;;;;;;;;;;;;;;;;;;;;;;;;;;;;;;;;;;;;;;;;;;;;;;;;;;;;;;;;;;;;;;;;;;;;;;;;;;;;;;;;;;;;;;;;;;;;;;;;;;;;;;;;;;21;ICPMS_LA;;;;;942;ICPMS_LA;;;667;;;;;;;;;;;;;;;;;0.0486;;;;;;;;;;;;;;;;0.0233;0.1561;;;;;;;;;;;;;;;;;;;;;;;;;;;;;;;;;;;;;128;147;148;PB206_U238 AGE;;;;;178;
2017;[21078] HE XIAO-FANG (2017);samp. BJ-5/1;;NANDALING - YANSHAN BELT / BEIJING PROVINCE / NANDALING FORMATION;HUANGTAI VILLAGE;40.0028;115.9625;40.0028;115.9625;;;OUTCROP;;;SUBAERIAL;VOLCANIC ROCK;TRACHYDACITE;;;;;JURASSIC;;;;;MINERAL / COMPONENT (INCL. GROUNDMASS);ZIRCON;BJ5-1-04;;;PRIMARY;;;;;;;;;;;;;;;;;;;;;;;;;;;;;;;;;;;;;;;;;;;;;;;;;;;;;;;;;;;;;;;;;;;;;;;;;;;;;;;;;;;;;;;;;;;;;;;;;;;;;;;;;;;;;;;;;;;;;;;;;;;;;;;;;;;;;;;;;;;;;;;;;;;;;;;;;;;;;;;;;;;;;;;;;7;ICPMS_LA;;;;;267;ICPMS_LA;;;229;;;;;;;;;;;;;;;;;0.0522;;;;;;;;;;;;;;;;0.0233;0.1675;;;;;;;;;;;;;;;;;;;;;;;;;;;;;;;;;;;;;293;157;148;PB206_U238 AGE;;;;;211;
2017;[21078] HE XIAO-FANG (2017);samp. BJ-5/1;;NANDALING - YANSHAN BELT / BEIJING PROVINCE / NANDALING FORMATION;HUANGTAI VILLAGE;40.0028;115.9625;40.0028;115.9625;;;OUTCROP;;;SUBAERIAL;VOLCANIC ROCK;TRACHYDACITE;;;;;JURASSIC;;;;;MINERAL / COMPONENT (INCL. GROUNDMASS);ZIRCON;BJ5-1-05;;;PRIMARY;;;;;;;;;;;;;;;;;;;;;;;;;;;;;;;;;;;;;;;;;;;;;;;;;;;;;;;;;;;;;;;;;;;;;;;;;;;;;;;;;;;;;;;;;;;;;;;;;;;;;;;;;;;;;;;;;;;;;;;;;;;;;;;;;;;;;;;;;;;;;;;;;;;;;;;;;;;;;;;;;;;;;;;;;27;ICPMS_LA;;;;;31;ICPMS_LA;;;62;;;;;;;;;;;;;;;;;0.128;;;;;;;;;;;;;;;;0.387;6.8275;;;;;;;;;;;;;;;;;;;;;;;;;;;;;;;;;;;;;2070;2089;2109;PB206_U238 AGE;;;;;2563;
2017;[21078] HE XIAO-FANG (2017);samp. BJ-5/1;;NANDALING - YANSHAN BELT / BEIJING PROVINCE / NANDALING FORMATION;HUANGTAI VILLAGE;40.0028;115.9625;40.0028;115.9625;;;OUTCROP;;;SUBAERIAL;VOLCANIC ROCK;TRACHYDACITE;;;;;JURASSIC;;;;;MINERAL / COMPONENT (INCL. GROUNDMASS);ZIRCON;BJ5-1-07;;;PRIMARY;;;;;;;;;;;;;;;;;;;;;;;;;;;;;;;;;;;;;;;;;;;;;;;;;;;;;;;;;;;;;;;;;;;;;;;;;;;;;;;;;;;;;;;;;;;;;;;;;;;;;;;;;;;;;;;;;;;;;;;;;;;;;;;;;;;;;;;;;;;;;;;;;;;;;;;;;;;;;;;;;;;;;;;;;19;ICPMS_LA;;;;;213;ICPMS_LA;;;265;;;;;;;;;;;;;;;;;0.0566;;;;;;;;;;;;;;;;0.0594;0.4636;;;;;;;;;;;;;;;;;;;;;;;;;;;;;;;;;;;;;475;387;372;PB206_U238 AGE;;;;;465;
2017;[21078] HE XIAO-FANG (2017);samp. BJ-5/1;;NANDALING - YANSHAN BELT / BEIJING PROVINCE / NANDALING FORMATION;HUANGTAI VILLAGE;40.0028;115.9625;40.0028;115.9625;;;OUTCROP;;;SUBAERIAL;VOLCANIC ROCK;TRACHYDACITE;;;;;JURASSIC;;;;;MINERAL / COMPONENT (INCL. GROUNDMASS);ZIRCON;BJ5-1-08;;;PRIMARY;;;;;;;;;;;;;;;;;;;;;;;;;;;;;;;;;;;;;;;;;;;;;;;;;;;;;;;;;;;;;;;;;;;;;;;;;;;;;;;;;;;;;;;;;;;;;;;;;;;;;;;;;;;;;;;;;;;;;;;;;;;;;;;;;;;;;;;;;;;;;;;;;;;;;;;;;;;;;;;;;;;;;;;;;50;ICPMS_LA;;;;;268;ICPMS_LA;;;1028;;;;;;;;;;;;;;;;;0.0596;;;;;;;;;;;;;;;;0.0468;0.3844;;;;;;;;;;;;;;;;;;;;;;;;;;;;;;;;;;;;;588;330;295;PB206_U238 AGE;;;;;487;
2017;[21078] HE XIAO-FANG (2017);samp. BJ-5/1;;NANDALING - YANSHAN BELT / BEIJING PROVINCE / NANDALING FORMATION;HUANGTAI VILLAGE;40.0028;115.9625;40.0028;115.9625;;;OUTCROP;;;SUBAERIAL;VOLCANIC ROCK;TRACHYDACITE;;;;;JURASSIC;;;;;MINERAL / COMPONENT (INCL. GROUNDMASS);ZIRCON;BJ5-1-09;;;PRIMARY;;;;;;;;;;;;;;;;;;;;;;;;;;;;;;;;;;;;;;;;;;;;;;;;;;;;;;;;;;;;;;;;;;;;;;;;;;;;;;;;;;;;;;;;;;;;;;;;;;;;;;;;;;;;;;;;;;;;;;;;;;;;;;;;;;;;;;;;;;;;;;;;;;;;;;;;;;;;;;;;;;;;;;;;;25;ICPMS_LA;;;;;209;ICPMS_LA;;;535;;;;;;;;;;;;;;;;;0.0599;;;;;;;;;;;;;;;;0.044;0.3637;;;;;;;;;;;;;;;;;;;;;;;;;;;;;;;;;;;;;600;315;278;PB206_U238 AGE;;;;;382;
2017;[21078] HE XIAO-FANG (2017);samp. BJ-5/1;;NANDALING - YANSHAN BELT / BEIJING PROVINCE / NANDALING FORMATION;HUANGTAI VILLAGE;40.0028;115.9625;40.0028;115.9625;;;OUTCROP;;;SUBAERIAL;VOLCANIC ROCK;TRACHYDACITE;;;;;JURASSIC;;;;;MINERAL / COMPONENT (INCL. GROUNDMASS);ZIRCON;BJ5-1-10;;;PRIMARY;;;;;;;;;;;;;;;;;;;;;;;;;;;;;;;;;;;;;;;;;;;;;;;;;;;;;;;;;;;;;;;;;;;;;;;;;;;;;;;;;;;;;;;;;;;;;;;;;;;;;;;;;;;;;;;;;;;;;;;;;;;;;;;;;;;;;;;;;;;;;;;;;;;;;;;;;;;;;;;;;;;;;;;;;82;ICPMS_LA;;;;;50;ICPMS_LA;;;251;;;;;;;;;;;;;;;;;0.1137;;;;;;;;;;;;;;;;0.3182;4.9858;;;;;;;;;;;;;;;;;;;;;;;;;;;;;;;;;;;;;1859;1817;1781;PB206_U238 AGE;;;;;2190;
2017;[21078] HE XIAO-FANG (2017);samp. BJ-5/1;;NANDALING - YANSHAN BELT / BEIJING PROVINCE / NANDALING FORMATION;HUANGTAI VILLAGE;40.0028;115.9625;40.0028;115.9625;;;OUTCROP;;;SUBAERIAL;VOLCANIC ROCK;TRACHYDACITE;;;;;JURASSIC;;;;;MINERAL / COMPONENT (INCL. GROUNDMASS);ZIRCON;BJ5-1-11;;;PRIMARY;;;;;;;;;;;;;;;;;;;;;;;;;;;;;;;;;;;;;;;;;;;;;;;;;;;;;;;;;;;;;;;;;;;;;;;;;;;;;;;;;;;;;;;;;;;;;;;;;;;;;;;;;;;;;;;;;;;;;;;;;;;;;;;;;;;;;;;;;;;;;;;;;;;;;;;;;;;;;;;;;;;;;;;;;123;ICPMS_LA;;;;;53;ICPMS_LA;;;372;;;;;;;;;;;;;;;;;0.1211;;;;;;;;;;;;;;;;0.3237;5.4051;;;;;;;;;;;;;;;;;;;;;;;;;;;;;;;;;;;;;1972;1886;1808;PB206_U238 AGE;;;;;2354;