Year;CITATION;SAMPLE NAME;UNIQUE_ID;LOCATION;LOCATION COMMENT;LATITUDE (MIN.);LONGITUDE (MIN.);LATITUDE (MAX.);LONGITUDE (MAX.);ELEVATION (MIN.);ELEVATION (MAX.);SAMPLING TECHNIQUE;DRILLING DEPTH (MIN.);DRILLING DEPTH (MAX.);LAND/SEA (SAMPLING);ROCK TYPE;ROCK NAME;ROCK TEXTURE;SAMPLE COMMENT;AGE (MIN.);AGE (MAX.);GEOLOGICAL AGE;GEOLOGICAL AGE PREFIX;ERUPTION YEAR;ALTERATION;ALTERATION TYPE;TYPE OF MATERIAL;MINERAL / COMPONENT;SPOT (MINERAL);CRYSTAL;RIM / CORE (MINERAL GRAINS);PRIMARY/SECONDARY;INCLUSION TYPE;SPOT (INCLUSION);MINERAL (INCLUSION);RIM / CORE (INCLUSION);HOSTMINERAL (INCLUSION);HEATING;HEATING TEMPERATURE (?C);SIO2(WT%);TIO2(WT%);ZRO2(WT%);B2O3(WT%);AL2O3(WT%);CR2O3(WT%);LA2O3(WT%);CE2O3(WT%);Y2O3(WT%);V2O3(WT%);NB2O3(WT%);TA2O5(WT%);WO3(WT%);FE2O3T(WT%);FE2O3(WT%);FEOT(WT%);FEO(WT%);CAO(WT%);MGO(WT%);MNO(WT%);BAO(WT%);SRO(WT%);NIO(WT%);ZNO(WT%);CS2O(WT%);RB2O(WT%);K2O(WT%);;;;NA2O(WT%);P2O5(WT%);H2O(WT%);;;;H2OP(WT%);H2OM(WT%);CO2(WT%);C(WT%);F(WT%);CL(WT%);SO2(WT%);SO3(WT%);S(WT%);LOI(WT%);AL(WT%);TI(WT%);FE(WT%);MG(WT%);CA(WT%);K(WT%);NA(WT%);LI(PPM);BE(PPM);B(PPM);C(PPM);F(PPM);NA(PPM);MG(PPM);AL(PPM);P(PPM);S(PPM);CL(PPM);AR40(AT/G);AR40(CCMSTP/G);AR40(MOL/G);AR40(PPB);K(PPM);CA(PPM);SC(PPM);;;;TI(PPM);;;;V(PPM);CR(PPM);MN(PPM);FE(PPM);CO(PPM);NI(PPM);CU(PPM);ZN(PPM);GA(PPM);GE(PPM);AS(PPM);SE(PPM);BR(PPM);RB(PPM): altern. values or methods;;;;SR(PPM): altern. values or methods;;;;Y(PPM): altern. values or methods;;;;ZR(PPM): altern. values or methods;;;;NB(PPM): altern. values or methods;;;;MO(PPM): altern. values or methods;;;;AG(PPM);CD(PPM);IN(PPM);SN(PPM);SB(PPM);TE(PPM);CS(PPM);BA(PPM): altern. values or methods;;;;LA(PPM): altern. values or methods;;;;CE(PPM): altern. values or methods;;;;PR(PPM);ND(PPM): altern. values or methods;;;;SM(PPM): altern. values or methods;;;;EU(PPM);GD(PPM);TB(PPM);DY(PPM);HO(PPM);ER(PPM);TM(PPM);YB(PPM);LU(PPM);HF(PPM);TA(PPM);W(PPM);RE(PPM);AU(PPM);AU(PPB);HG(PPM);HG(PPB);TL(PPM);PB(PPM): altern. values or methods;;;;PB206(PPM);BI(PPM);TH(PPM): altern. values or methods;;;;U(PPM);ND143_ND144;ND143_ND144_INI;EPSILON_ND;EPSILON_ND_INI;SM147_ND144;SR87_SR86;SR87_SR86_INI;EPSILON_SR;EPSILON_SR_INI;RB87_SR86;PB206_PB204;PB206_PB204_INI;PB206_PB207;PB206_PB208;PB207_PB204;PB207_PB204_INI;PB207_PB206;PB208_PB204;PB208_PB204_INI;PB208_PB206;HF176_HF177;HF176_HF177_INI;EPSILON_HF_INI;LU176_HF177;YB176_HF177;AR36_AR39;AR36_AR40;AR37_AR39;AR38_AR39;AR39_AR40;AR40_AR36;AR40_AR39;PB206_U238;PB207_U235;PB208_TH232;TH232_PB204;TH232_U238;U235_PB204;U238_PB204;U238_PB206;D7LI(VS LSVEC);D18O(PER MIL);D18O(VS SMOW);D18O(VS VSMOW);D56FE(VS IRMM-014);D57FE(VS IRMM-014);DD(VS SMOW);ALBITE(MOL%);ANORTHITE(MOL%);CA OLIVINE(MOL%);ENSTATITE(MOL%);FAYALITE(MOL%);FORSTERITE(MOL%);FERROSILITE(MOL%);ORTHOCLASE(MOL%);TEPHROITE(MOL%);ULVOSPINEL(MOL%);WOLLASTONITE(MOL%);AGE(KA): altern. values or methods;;;;AGE(MA): altern. values or methods;;;;;;;;AGE_PB207_PB206(MA);AGE_PB207_U235(MA);AGE_PB206_U238(MA): altern. values or methods;;;;;;AGE_PB208_TH232(MA);
2017;[21078] HE XIAO-FANG (2017);samp. BJ-5/1;;NANDALING - YANSHAN BELT / BEIJING PROVINCE / NANDALING FORMATION;HUANGTAI VILLAGE;40.0028;115.9625;40.0028;115.9625;;;OUTCROP;;;SUBAERIAL;VOLCANIC ROCK;TRACHYDACITE;;;;;JURASSIC;;;;;MINERAL / COMPONENT (INCL. GROUNDMASS);ZIRCON;BJ5-1-12;;;PRIMARY;;;;;;;;;;;;;;;;;;;;;;;;;;;;;;;;;;;;;;;;;;;;;;;;;;;;;;;;;;;;;;;;;;;;;;;;;;;;;;;;;;;;;;;;;;;;;;;;;;;;;;;;;;;;;;;;;;;;;;;;;;;;;;;;;;;;;;;;;;;;;;;;;;;;;;;;;;;;;;;;;;;;;;;;;5;ICPMS_LA;;;;;274;ICPMS_LA;;;151;;;;;;;;;;;;;;;;;0.0504;;;;;;;;;;;;;;;;0.0222;0.1539;;;;;;;;;;;;;;;;;;;;;;;;;;;;;;;;;;;;;211;145;141;PB206_U238 AGE;;;;;167;
2017;[21078] HE XIAO-FANG (2017);samp. BJ-5/1;;NANDALING - YANSHAN BELT / BEIJING PROVINCE / NANDALING FORMATION;HUANGTAI VILLAGE;40.0028;115.9625;40.0028;115.9625;;;OUTCROP;;;SUBAERIAL;VOLCANIC ROCK;TRACHYDACITE;;;;;JURASSIC;;;;;MINERAL / COMPONENT (INCL. GROUNDMASS);ZIRCON;BJ5-1-13;;;PRIMARY;;;;;;;;;;;;;;;;;;;;;;;;;;;;;;;;;;;;;;;;;;;;;;;;;;;;;;;;;;;;;;;;;;;;;;;;;;;;;;;;;;;;;;;;;;;;;;;;;;;;;;;;;;;;;;;;;;;;;;;;;;;;;;;;;;;;;;;;;;;;;;;;;;;;;;;;;;;;;;;;;;;;;;;;;4;ICPMS_LA;;;;;41;ICPMS_LA;;;83;;;;;;;;;;;;;;;;;0.0617;;;;;;;;;;;;;;;;0.0451;0.3837;;;;;;;;;;;;;;;;;;;;;;;;;;;;;;;;;;;;;665;330;284;PB206_U238 AGE;;;;;478;
2017;[21078] HE XIAO-FANG (2017);samp. BJ-5/1;;NANDALING - YANSHAN BELT / BEIJING PROVINCE / NANDALING FORMATION;HUANGTAI VILLAGE;40.0028;115.9625;40.0028;115.9625;;;OUTCROP;;;SUBAERIAL;VOLCANIC ROCK;TRACHYDACITE;;;;;JURASSIC;;;;;MINERAL / COMPONENT (INCL. GROUNDMASS);ZIRCON;BJ5-1-14;;;PRIMARY;;;;;;;;;;;;;;;;;;;;;;;;;;;;;;;;;;;;;;;;;;;;;;;;;;;;;;;;;;;;;;;;;;;;;;;;;;;;;;;;;;;;;;;;;;;;;;;;;;;;;;;;;;;;;;;;;;;;;;;;;;;;;;;;;;;;;;;;;;;;;;;;;;;;;;;;;;;;;;;;;;;;;;;;;5;ICPMS_LA;;;;;237;ICPMS_LA;;;167;;;;;;;;;;;;;;;;;0.0501;;;;;;;;;;;;;;;;0.0228;0.1576;;;;;;;;;;;;;;;;;;;;;;;;;;;;;;;;;;;;;200;149;145;PB206_U238 AGE;;;;;169;
2017;[21078] HE XIAO-FANG (2017);samp. BJ-5/1;;NANDALING - YANSHAN BELT / BEIJING PROVINCE / NANDALING FORMATION;HUANGTAI VILLAGE;40.0028;115.9625;40.0028;115.9625;;;OUTCROP;;;SUBAERIAL;VOLCANIC ROCK;TRACHYDACITE;;;;;JURASSIC;;;;;MINERAL / COMPONENT (INCL. GROUNDMASS);ZIRCON;BJ5-1-15;;;PRIMARY;;;;;;;;;;;;;;;;;;;;;;;;;;;;;;;;;;;;;;;;;;;;;;;;;;;;;;;;;;;;;;;;;;;;;;;;;;;;;;;;;;;;;;;;;;;;;;;;;;;;;;;;;;;;;;;;;;;;;;;;;;;;;;;;;;;;;;;;;;;;;;;;;;;;;;;;;;;;;;;;;;;;;;;;;10;ICPMS_LA;;;;;155;ICPMS_LA;;;203;;;;;;;;;;;;;;;;;0.0545;;;;;;;;;;;;;;;;0.0402;0.3021;;;;;;;;;;;;;;;;;;;;;;;;;;;;;;;;;;;;;394;268;254;PB206_U238 AGE;;;;;313;
2017;[21078] HE XIAO-FANG (2017);samp. BJ-5/1;;NANDALING - YANSHAN BELT / BEIJING PROVINCE / NANDALING FORMATION;HUANGTAI VILLAGE;40.0028;115.9625;40.0028;115.9625;;;OUTCROP;;;SUBAERIAL;VOLCANIC ROCK;TRACHYDACITE;;;;;JURASSIC;;;;;MINERAL / COMPONENT (INCL. GROUNDMASS);ZIRCON;BJ5-1-16;;;PRIMARY;;;;;;;;;;;;;;;;;;;;;;;;;;;;;;;;;;;;;;;;;;;;;;;;;;;;;;;;;;;;;;;;;;;;;;;;;;;;;;;;;;;;;;;;;;;;;;;;;;;;;;;;;;;;;;;;;;;;;;;;;;;;;;;;;;;;;;;;;;;;;;;;;;;;;;;;;;;;;;;;;;;;;;;;;231;ICPMS_LA;;;;;415;ICPMS_LA;;;381;;;;;;;;;;;;;;;;;0.1722;;;;;;;;;;;;;;;;0.4599;10.9206;;;;;;;;;;;;;;;;;;;;;;;;;;;;;;;;;;;;;2579;2516;2439;PB206_U238 AGE;;;;;2716;
2017;[21078] HE XIAO-FANG (2017);samp. BJ-5/1;;NANDALING - YANSHAN BELT / BEIJING PROVINCE / NANDALING FORMATION;HUANGTAI VILLAGE;40.0028;115.9625;40.0028;115.9625;;;OUTCROP;;;SUBAERIAL;VOLCANIC ROCK;TRACHYDACITE;;;;;JURASSIC;;;;;MINERAL / COMPONENT (INCL. GROUNDMASS);ZIRCON;BJ5-1-18;;;PRIMARY;;;;;;;;;;;;;;;;;;;;;;;;;;;;;;;;;;;;;;;;;;;;;;;;;;;;;;;;;;;;;;;;;;;;;;;;;;;;;;;;;;;;;;;;;;;;;;;;;;;;;;;;;;;;;;;;;;;;;;;;;;;;;;;;;;;;;;;;;;;;;;;;;;;;;;;;;;;;;;;;;;;;;;;;;7;ICPMS_LA;;;;;376;ICPMS_LA;;;212;;;;;;;;;;;;;;;;;0.0526;;;;;;;;;;;;;;;;0.0233;0.1687;;;;;;;;;;;;;;;;;;;;;;;;;;;;;;;;;;;;;311;158;148;PB206_U238 AGE;;;;;178;
2017;[21078] HE XIAO-FANG (2017);samp. BJ-5/1;;NANDALING - YANSHAN BELT / BEIJING PROVINCE / NANDALING FORMATION;HUANGTAI VILLAGE;40.0028;115.9625;40.0028;115.9625;;;OUTCROP;;;SUBAERIAL;VOLCANIC ROCK;TRACHYDACITE;;;;;JURASSIC;;;;;MINERAL / COMPONENT (INCL. GROUNDMASS);ZIRCON;BJ5-1-19;;;PRIMARY;;;;;;;;;;;;;;;;;;;;;;;;;;;;;;;;;;;;;;;;;;;;;;;;;;;;;;;;;;;;;;;;;;;;;;;;;;;;;;;;;;;;;;;;;;;;;;;;;;;;;;;;;;;;;;;;;;;;;;;;;;;;;;;;;;;;;;;;;;;;;;;;;;;;;;;;;;;;;;;;;;;;;;;;;9;ICPMS_LA;;;;;89;ICPMS_LA;;;169;;;;;;;;;;;;;;;;;0.0517;;;;;;;;;;;;;;;;0.0492;0.3506;;;;;;;;;;;;;;;;;;;;;;;;;;;;;;;;;;;;;273;305;309;PB206_U238 AGE;;;;;370;
2017;[21078] HE XIAO-FANG (2017);samp. BJ-5/1;;NANDALING - YANSHAN BELT / BEIJING PROVINCE / NANDALING FORMATION;HUANGTAI VILLAGE;40.0028;115.9625;40.0028;115.9625;;;OUTCROP;;;SUBAERIAL;VOLCANIC ROCK;TRACHYDACITE;;;;;JURASSIC;;;;;MINERAL / COMPONENT (INCL. GROUNDMASS);ZIRCON;BJ5-1-20;;;PRIMARY;;;;;;;;;;;;;;;;;;;;;;;;;;;;;;;;;;;;;;;;;;;;;;;;;;;;;;;;;;;;;;;;;;;;;;;;;;;;;;;;;;;;;;;;;;;;;;;;;;;;;;;;;;;;;;;;;;;;;;;;;;;;;;;;;;;;;;;;;;;;;;;;;;;;;;;;;;;;;;;;;;;;;;;;;5;ICPMS_LA;;;;;167;ICPMS_LA;;;157;;;;;;;;;;;;;;;;;0.0524;;;;;;;;;;;;;;;;0.0233;0.1687;;;;;;;;;;;;;;;;;;;;;;;;;;;;;;;;;;;;;305;158;149;PB206_U238 AGE;;;;;187;
2017;[21078] HE XIAO-FANG (2017);samp. BJ-5/1;;NANDALING - YANSHAN BELT / BEIJING PROVINCE / NANDALING FORMATION;HUANGTAI VILLAGE;40.0028;115.9625;40.0028;115.9625;;;OUTCROP;;;SUBAERIAL;VOLCANIC ROCK;TRACHYDACITE;;;;;JURASSIC;;;;;MINERAL / COMPONENT (INCL. GROUNDMASS);ZIRCON;BJ5-1-22;;;PRIMARY;;;;;;;;;;;;;;;;;;;;;;;;;;;;;;;;;;;;;;;;;;;;;;;;;;;;;;;;;;;;;;;;;;;;;;;;;;;;;;;;;;;;;;;;;;;;;;;;;;;;;;;;;;;;;;;;;;;;;;;;;;;;;;;;;;;;;;;;;;;;;;;;;;;;;;;;;;;;;;;;;;;;;;;;;62;ICPMS_LA;;;;;73;ICPMS_LA;;;167;;;;;;;;;;;;;;;;;0.121;;;;;;;;;;;;;;;;0.3429;5.7197;;;;;;;;;;;;;;;;;;;;;;;;;;;;;;;;;;;;;1971;1934;1900;PB206_U238 AGE;;;;;2043;
2017;[21078] HE XIAO-FANG (2017);samp. BJ-5/1;;NANDALING - YANSHAN BELT / BEIJING PROVINCE / NANDALING FORMATION;HUANGTAI VILLAGE;40.0028;115.9625;40.0028;115.9625;;;OUTCROP;;;SUBAERIAL;VOLCANIC ROCK;TRACHYDACITE;;;;;JURASSIC;;;;;MINERAL / COMPONENT (INCL. GROUNDMASS);ZIRCON;BJ5-1-23;;;PRIMARY;;;;;;;;;;;;;;;;;;;;;;;;;;;;;;;;;;;;;;;;;;;;;;;;;;;;;;;;;;;;;;;;;;;;;;;;;;;;;;;;;;;;;;;;;;;;;;;;;;;;;;;;;;;;;;;;;;;;;;;;;;;;;;;;;;;;;;;;;;;;;;;;;;;;;;;;;;;;;;;;;;;;;;;;;6;ICPMS_LA;;;;;110;ICPMS_LA;;;243;;;;;;;;;;;;;;;;;0.0561;;;;;;;;;;;;;;;;0.0231;0.1791;;;;;;;;;;;;;;;;;;;;;;;;;;;;;;;;;;;;;457;167;148;PB206_U238 AGE;;;;;164;
2017;[21078] HE XIAO-FANG (2017);samp. BJ-5/1;;NANDALING - YANSHAN BELT / BEIJING PROVINCE / NANDALING FORMATION;HUANGTAI VILLAGE;40.0028;115.9625;40.0028;115.9625;;;OUTCROP;;;SUBAERIAL;VOLCANIC ROCK;TRACHYDACITE;;;;;JURASSIC;;;;;MINERAL / COMPONENT (INCL. GROUNDMASS);ZIRCON;BJ5-1-24;;;PRIMARY;;;;;;;;;;;;;;;;;;;;;;;;;;;;;;;;;;;;;;;;;;;;;;;;;;;;;;;;;;;;;;;;;;;;;;;;;;;;;;;;;;;;;;;;;;;;;;;;;;;;;;;;;;;;;;;;;;;;;;;;;;;;;;;;;;;;;;;;;;;;;;;;;;;;;;;;;;;;;;;;;;;;;;;;;4;ICPMS_LA;;;;;109;ICPMS_LA;;;152;;;;;;;;;;;;;;;;;0.0522;;;;;;;;;;;;;;;;0.0228;0.1643;;;;;;;;;;;;;;;;;;;;;;;;;;;;;;;;;;;;;294;154;146;PB206_U238 AGE;;;;;170;
2017;[21078] HE XIAO-FANG (2017);samp. BJ-5/1;;NANDALING - YANSHAN BELT / BEIJING PROVINCE / NANDALING FORMATION;HUANGTAI VILLAGE;40.0028;115.9625;40.0028;115.9625;;;OUTCROP;;;SUBAERIAL;VOLCANIC ROCK;TRACHYDACITE;;;;;JURASSIC;;;;;MINERAL / COMPONENT (INCL. GROUNDMASS);ZIRCON;BJ5-1-25;;;PRIMARY;;;;;;;;;;;;;;;;;;;;;;;;;;;;;;;;;;;;;;;;;;;;;;;;;;;;;;;;;;;;;;;;;;;;;;;;;;;;;;;;;;;;;;;;;;;;;;;;;;;;;;;;;;;;;;;;;;;;;;;;;;;;;;;;;;;;;;;;;;;;;;;;;;;;;;;;;;;;;;;;;;;;;;;;;7;ICPMS_LA;;;;;66;ICPMS_LA;;;319;;;;;;;;;;;;;;;;;0.0521;;;;;;;;;;;;;;;;0.0224;0.1607;;;;;;;;;;;;;;;;;;;;;;;;;;;;;;;;;;;;;290;151;143;PB206_U238 AGE;;;;;163;
2017;[21117] GODOY B. (2017);samp. PAE-16;;ANDEAN ARC / CENTRAL ANDEAN VOLCANIC ZONE / CHILE / CERRO DEL LEON;NE FLANK;-22.0617;-68.1117;-22.0617;-68.1117;;;OUTCROP;;;SUBAERIAL;VOLCANIC ROCK;TRACHYDACITE;;FLOW;;;;;;;;MINERAL / COMPONENT (INCL. GROUNDMASS);GROUNDMASS;;;;PRIMARY;;;;;;;;;;;;;;;;;;;;;;;;;;;;;;;;;;;;;;;;;;;;;;;;;;;;;;;;;;;;;;;;;;;;;;;;;;;;;;;;;;;;;;;;;;;;;;;;;;;;;;;;;;;;;;;;;;;;;;;;;;;;;;;;;;;;;;;;;;;;;;;;;;;;;;;;;;;;;;;;;;;;;;;;;;;;;;;;;;;;;;;;;;;;;;;;;;;;;;;;;;;;;;;;;;;;;;;;;;;;;;;;;;;;;;;;;;;;;;;;;;1.054;AR-AR;1.037;AR-AR;;;;;;;;;;;;;;
2017;[21117] GODOY B. (2017);samp. PAE-25;;ANDEAN ARC / CENTRAL ANDEAN VOLCANIC ZONE / CHILE / PANIRI;E FLANK;-22.0622;-68.2586;-22.0622;-68.2586;;;OUTCROP;;;SUBAERIAL;VOLCANIC ROCK;TRACHYDACITE;;FLOW;;;;;;;;MINERAL / COMPONENT (INCL. GROUNDMASS);GROUNDMASS;;;;PRIMARY;;;;;;;;;;;;;;;;;;;;;;;;;;;;;;;;;;;;;;;;;;;;;;;;;;;;;;;;;;;;;;;;;;;;;;;;;;;;;;;;;;;;;;;;;;;;;;;;;;;;;;;;;;;;;;;;;;;;;;;;;;;;;;;;;;;;;;;;;;;;;;;;;;;;;;;;;;;;;;;;;;;;;;;;;;;;;;;;;;;;;;;;;;;;;;;;;;;;;;;;;;;;;;;;;;;;;;;;;;;;;;;;;;;;;;;;;;;;;;;;;;0.164;AR-AR;0.163;AR-AR;;;;;;;;;;;;;;
2017;[21395] DU DE-HONG(2017)  [GeoReM [10307] ];samp. 15SX-12-1;;CENTRAL ASIAN FOLDBELT - PROTEROZOIC / CHINA - PROTEROZOIC / SICHUAN PROVINCE / SUXIONG FORMATION;;29;103;29;103;;;OUTCROP;;;SUBAERIAL;VOLCANIC ROCK;TRACHYDACITE;;;;;PROTEROZOIC;NEO;;;;WHOLE ROCK;;;;;;;;;;;;;69;0.52;;;14.2;;;;;;;;;4.07;;;;0.34;0.63;0.07;;;;;;;4.61;XRF;;;4.58;0.17;;;;;;;;;;;;;;0.9;;;;;;;;14.2;2.53;;;;;;;;;;;;;;;;12.7;ICPMS;;;;;;;31;9.32;;;6.49;1.22;2.87;128;18.9;;;;;174;ICPMS;;;89.9;ICPMS;;;39.8;ICPMS;;;266;ICPMS;;;14.8;ICPMS;;;;;;;;;;;;;;888;ICPMS;;;46;ICPMS;;;92;ICPMS;;;10.4;41.1;ICPMS;;;8.19;ICPMS;;;1.34447758923029;7.52444310844896;1.24;7.07;1.41;4.04;0.601;4.15;0.588;6.64;0.7984;;;;;;;;;;;;;;17;ICPMS;;;2.61;;;;;;;;;;;;;;;;;;;;;;;;;;;;;;;;;;;;;;;;;;;;;0.13;0.19;;;;;;;;;;;;;;;;;;;;;;;;;;;;;;;;;;
2018;[21630] KAYGUSUZ A. (2018);samp. C10;;ANATOLIA-IRAN BELT / TURKEY / EASTERN ANATOLIAN VOLCANIC BELT;KANDILLI AREA, ERZURUM AREA;40;42;40;42;;;OUTCROP;;;SUBAERIAL;VOLCANIC ROCK;TRACHYDACITE;;;;;NEOGENE;;;;;WHOLE ROCK;;;;;;;;;;;;;63.82;0.75;;;16.96;;;;;;;;;4.67;;;;2.81;1.01;0.08;;;;;;;3.29;ICPAES;;;5.04;0.21;;;;;;;;;;;;;;0.9;;;;;;;;;;;;;;;;;;;;;;;;;7;ICPMS;;;;;;;44;;;;7.2;6.2;3.1;35;19.6;;;;;66.4;ICPMS;;;294.7;ICPMS;;;21.6;ICPMS;;;323.2;ICPMS;;;15.8;ICPMS;;;1.2;ICPMS;;;;;;3;;;1.8;437;ICPMS;;;33.9;ICPMS;;;59.2;ICPMS;;;6.68;24.3;ICPMS;;;4.59;ICPMS;;;1.33;4.3;0.71;4.45;0.89;2.63;0.4;2.64;0.4;7.7;1.1;1.3;;;;;;;3.7;ICPMS;;;;;10.5;ICPMS;;;2.9;0.51273;;;;0.1142;0.70476;;;;0.6534;18.72;;;;15.56;;;38.57;;;;;;;;;;;;;;;;;;;;;;;;;;;;;;;;;;;;;;;;;;;;;;;;;;;;;;;;;;;;;;
2018;[21630] KAYGUSUZ A. (2018);samp. K16;;ANATOLIA-IRAN BELT / TURKEY / EASTERN ANATOLIAN VOLCANIC BELT;KANDILLI AREA, ERZURUM AREA;40;42;40;42;;;OUTCROP;;;SUBAERIAL;VOLCANIC ROCK;TRACHYDACITE;;;;;NEOGENE;;;;;WHOLE ROCK;;;;;;;;;;;;;64.27;0.76;;;16.49;;;;;;;;;4.85;;;;2.65;0.94;0.09;;;;;;;3.46;ICPAES;;;5.07;0.22;;;;;;;;;;;;;;0.7;;;;;;;;;;;;;;;;;;;;;;;;;7;ICPMS;;;;;;;44;;;;7.1;2.7;4.9;24;18.8;;;;;83;ICPMS;;;237.3;ICPMS;;;28.5;ICPMS;;;346.8;ICPMS;;;16.2;ICPMS;;;1.1;ICPMS;;;;;;2;;;2.5;428;ICPMS;;;37.3;ICPMS;;;67.6;ICPMS;;;7.48;27.5;ICPMS;;;5.05;ICPMS;;;1.28;5;0.82;5.17;1.02;3.39;0.51;3.31;0.54;7.5;1;1.3;;;;;;;5.3;ICPMS;;;;;10.6;ICPMS;;;3.5;;;;;;;;;;;;;;;;;;;;;;;;;;;;;;;;;;;;;;;;;;;;;;;;;;;;;;;;;;;;;;;;;;;;;;;;;;;;;;;;
2018;[21630] KAYGUSUZ A. (2018);samp. K18;;ANATOLIA-IRAN BELT / TURKEY / EASTERN ANATOLIAN VOLCANIC BELT;KANDILLI AREA, ERZURUM AREA;40;42;40;42;;;OUTCROP;;;SUBAERIAL;VOLCANIC ROCK;TRACHYDACITE;;;;;NEOGENE;;;;;WHOLE ROCK;;;;;;;;;;;;;64.54;0.7;;;16.23;;;;;;;;;4.84;;;;2.55;0.78;0.09;;;;;;;3.52;ICPAES;;;5.04;0.2;;;;;;;;;;;;;;0.9;;;;;;;;;;;;;;;;;;;;;;;;;8;ICPMS;;;;;;;45;;;;6.2;3.3;6.6;48;17.5;;;;;81.1;ICPMS;;;216.9;ICPMS;;;30.2;ICPMS;;;363.6;ICPMS;;;17.3;ICPMS;;;2.4;ICPMS;;;;;;2;;;1.5;443;ICPMS;;;35.3;ICPMS;;;63;ICPMS;;;7.02;24.7;ICPMS;;;5.16;ICPMS;;;1.23;5.11;0.84;5.38;1.08;3.2;0.51;3.51;0.53;8;1.1;1.2;;;;;;;3.7;ICPMS;;;;;11.4;ICPMS;;;3.8;;;;;;;;;;;;;;;;;;;;;;;;;;;;;;;;;;;;;;;;;;;;;;;;;;;;;;;;;;;;;;;;;;;;;;;;;;;;;;;;
2018;[21780] SHI GUANZHONG (2018);samp. WLJ-13-1;;CENTRAL ASIAN FOLDBELT - PALEOZOIC / CHINA - PALEOZOIC / INNER MONGOLIA;ENGER US AREA;41;104;41;104;;;OUTCROP;;;SUBAERIAL;VOLCANIC ROCK;TRACHYDACITE;;;;;PERMIAN;;;;;WHOLE ROCK;;;;;;;;;;;;;64.609;0.419;;;16.96;;;;;;;;;3.276;;;;2.331;0.763;0.034;;;;;;;1.365;XRF;;;6.025;0.218;;;;;;;;;;;;;;3.92;;;;;;;;;;;;;;;;;;;;;;;;;2.9996819;ICPMS;;;;;;;15.6173005;7.0490098;;;6.1442043;5.795206;;;;;;;;25.3650682;ICPMS;;;466.5221962;ICPMS;;;9.0561719;ICPMS;;;98.933438;ICPMS;;;12.0428886;ICPMS;;;;;;;;;;;;;;201.3103696;ICPMS;;;17.2869731;ICPMS;;;39.8809187;ICPMS;;;4.8219304;17.4097237;ICPMS;;;2.9750042;ICPMS;;;0.9833186;2.2467345;0.3099103;1.6657438;0.3217931;0.8488652;0.1219277;0.7660113;0.1126222;2.5260028;1.0117103;;;;;;;;;;;;;;2.2996859;ICPMS;;;1.7288924;0.512917469058795;;;;0.103298022983558;0.705896955337404;;;;0.157620223240731;;;;;;;;;;;;;;;;;;;;;;;;;;;;;;;;;;;;;;;;;;;;;;;;;;;;;;;;;;;;;;;;;;;;;;
2018;[21780] SHI GUANZHONG (2018);samp. WLJ-14-2;;CENTRAL ASIAN FOLDBELT - PALEOZOIC / CHINA - PALEOZOIC / INNER MONGOLIA;ENGER US AREA;41;104;41;104;;;OUTCROP;;;SUBAERIAL;VOLCANIC ROCK;TRACHYDACITE;;;;;PERMIAN;;;;;WHOLE ROCK;;;;;;;;;;;;;64.609;0.285;;;16.632;;;;;;;;;4.584;;;;2.144;0.538;0.072;;;;;;;1.051;XRF;;;6.561;0.174;;;;;;;;;;;;;;3.28;;;;;;;;;;;;;;;;;;;;;;;;;2.717084;ICPMS;;;;;;;5.5321788;2.482923;;;3.5528824;0.4303098;;;;;;;;13.0476777;ICPMS;;;331.2463756;ICPMS;;;15.1744332;ICPMS;;;256.6008079;ICPMS;;;11.1162854;ICPMS;;;;;;;;;;;;;;128.9352666;ICPMS;;;18.1700092;ICPMS;;;41.9742408;ICPMS;;;5.0002078;18.2518158;ICPMS;;;3.272091;ICPMS;;;0.9931404;2.8547803;0.4503508;2.6669346;0.5552955;1.6094989;0.2544747;1.7101299;0.2669808;5.3046827;0.9400655;;;;;;;;;;;;;;2.4357151;ICPMS;;;1.3633684;0.512925473614481;;;;0.108371628947735;0.705094447089079;;;;0.114190585734819;;;;;;;;;;;;;;;;;;;;;;;;;;;;;;;;;;;;;;;;;;;;;;;;;;;;;;;;;;;;;;;;;;;;;;
2018;[21910] LECHMANN A. (2018);samp. 58;;ANATOLIA-IRAN BELT / IRAN / LESSER CAUCASUS;;37.7024;45.9785;37.7024;45.9785;;;OUTCROP;;;SUBAERIAL;VOLCANIC ROCK;TRACHYDACITE;TRACHYTIC, PORPHYRITIC;;;;MIOCENE;;;;;WHOLE ROCK;;;;;;;;;;;;;63.23;0.49;;;16.3;0.002;;;;;;;;3.56;;;;5.32;1.5;0.04;;;0.005;;;;2.19;XRF;;;4.76;0.23;;;;;;;;;;;;;;1.73;;;;;;;;;;;;;;;;;;;;;;;;;7.4;ICPMS_LA;;;;;;;95;17.1;;;15.1;42;29;52;17.1;;;;;43;ICPMS_LA;;;992;ICPMS_LA;;;8.2;ICPMS_LA;;;99;ICPMS_LA;;;11.8;ICPMS_LA;;;;;;;;;;;;;5.7;881;ICPMS_LA;;;34;ICPMS_LA;;;61;ICPMS_LA;;;6.3;23;ICPMS_LA;;;3.3;ICPMS_LA;;;0.9;2.8;0.3;1.8;0.3;0.9;0;0.9;0;2.6;0.7;;;;;;;;1.6;ICPMS_LA;;;;;8.2;ICPMS_LA;;;2.8;;;;;;;;;;;;;;;;;;;;;;;;;;;;;;;;;;;;;;;;;;;;;;;;;;;;;;;;;;;;;;;;;;;;;;;;;;;;;;;;
2018;[21910] LECHMANN A. (2018);samp. 60;;ANATOLIA-IRAN BELT / IRAN / LESSER CAUCASUS;;38.4151;45.5672;38.4151;45.5672;;;OUTCROP;;;SUBAERIAL;VOLCANIC ROCK;TRACHYDACITE;HYPABYSSAL, HOLOCRYSTALLINE, PORPHYRITIC;;;;MIOCENE;;;;;WHOLE ROCK;;;;;;;;;;;;;67.53;0.24;;;16.38;0;;;;;;;;3.28;;;;1.14;0.94;0.01;;;0.001;;;;0.77;XRF;;;7.5;0.132;;;;;;;;;;;;;;1.42;;;;;;;;;;;;;;;;;;;;;;;;;3.8;ICPMS_LA;;;;;;;31;0;;;5.1;4.2;17.8;11.3;13.2;;;;;14.4;ICPMS_LA;;;154;ICPMS_LA;;;10;ICPMS_LA;;;71;ICPMS_LA;;;5.9;ICPMS_LA;;;;;;;;;;;;;0.1;387;ICPMS_LA;;;12.4;ICPMS_LA;;;22;ICPMS_LA;;;2.5;9.5;ICPMS_LA;;;1.8;ICPMS_LA;;;0.7;2;0.2;1.8;0.4;1.3;0;1.4;0.2;2.1;0.3;;;;;;;;0;ICPMS_LA;;;;;2.6;ICPMS_LA;;;1;0.512812168488372;;;;;0.706114;;;;7E-06;18.9892345382739;;;;15.6671455078939;;0.825058826688549;39.0624144655198;;2.05699419772301;;;;;;;;;;;;;;;;;;;;;;;;;;;;;;;;;;;;;;;;;;;;;;;;;;;;;;;;;;;;
2018;[21910] LECHMANN A. (2018);samp. 167;;ANATOLIA-IRAN BELT / IRAN / LESSER CAUCASUS;;37.7389;45.2532;37.7389;45.2532;;;OUTCROP;;;SUBAERIAL;VOLCANIC ROCK;TRACHYDACITE;TRACHYTIC, PORPHYRITIC;;;;PLIOCENE;;;;;WHOLE ROCK;;;;;;;;;;;;;64.04;0.41;;;16.98;0;;;;;;;;3.56;;;;4.58;1.33;0.09;;;0.001;;;;2.07;XRF;;;5.27;0.277;;;;;;;;;;;;;;0.69;;;;;;;;;;;;;;;;;;;;;;;;;4.5;ICPMS_LA;;;;;;;36;0;;;4.7;7.6;9.7;44;15.8;;;;;58;ICPMS_LA;;;1129;ICPMS_LA;;;13;ICPMS_LA;;;149;ICPMS_LA;;;17.8;ICPMS_LA;;;;;;;;;;;;;1.2;1039;ICPMS_LA;;;42;ICPMS_LA;;;75;ICPMS_LA;;;7.7;26;ICPMS_LA;;;4.5;ICPMS_LA;;;1.2;2.9;0.4;2.2;0.5;1.3;0.2;1.3;0.2;3.5;0.9;;;;;;;;13.9;ICPMS_LA;;;;;8.2;ICPMS_LA;;;2.9;0.512599785789474;;;;;0.705351;;;;4E-06;18.9439669113127;;;;15.6633657502313;;0.826847206371162;39.1191342251589;;2.06497571067431;;;;;;;;;;;;;;;;;;;;;;;;;;;;;;;;;;;;;;;;;;;;;;;;;;;;;;;;;;;;
2018;[21910] LECHMANN A. (2018);samp. 170;;ANATOLIA-IRAN BELT / IRAN / LESSER CAUCASUS;;38.9213;44.2476;38.9213;44.2476;;;OUTCROP;;;SUBAERIAL;VOLCANIC ROCK;TRACHYDACITE;HYPABYSSAL, HOLOCRYSTALLINE, PORPHYRITIC;;;;MIOCENE;;;;;WHOLE ROCK;;;;;;;;;;;;;64.84;0.36;;;17;0;;;;;;;;2.74;;;;2.45;0.73;0.05;;;0.001;;;;5.77;XRF;;;4.49;0.176;;;;;;;;;;;;;;0.6;;;;;;;;;;;;;;;;;;;;;;;;;3.5;ICPMS_LA;;;;;;;43;0;;;6.9;11.6;8.9;26;17.6;;;;;229;ICPMS_LA;;;658;ICPMS_LA;;;18.4;ICPMS_LA;;;245;ICPMS_LA;;;20;ICPMS_LA;;;;;;;;;;;;;6.1;1216;ICPMS_LA;;;72;ICPMS_LA;;;116;ICPMS_LA;;;11.3;36;ICPMS_LA;;;5.1;ICPMS_LA;;;1.2;4;0.5;3.1;0.6;1.6;0.2;1.8;0.3;5.8;1.2;;;;;;;;30;ICPMS_LA;;;;;46;ICPMS_LA;;;11.9;0.512395307459016;;;;;0.708743;;;;3E-06;18.9788950802934;;;;15.7015233037767;;0.827349800661299;39.19852388873;;2.06541873914661;;;;;;;;;;;;;;;;;;;;;;;;;;;;;;;;;;;;;;;;;;;;;;;;;;;;;;;;;;;;