Year;CITATION;SAMPLE NAME;UNIQUE_ID;LOCATION;LOCATION COMMENT;LATITUDE (MIN.);LONGITUDE (MIN.);LATITUDE (MAX.);LONGITUDE (MAX.);ELEVATION (MIN.);ELEVATION (MAX.);SAMPLING TECHNIQUE;DRILLING DEPTH (MIN.);DRILLING DEPTH (MAX.);LAND/SEA (SAMPLING);ROCK TYPE;ROCK NAME;ROCK TEXTURE;SAMPLE COMMENT;AGE (MIN.);AGE (MAX.);GEOLOGICAL AGE;GEOLOGICAL AGE PREFIX;ERUPTION YEAR;ALTERATION;ALTERATION TYPE;TYPE OF MATERIAL;MINERAL / COMPONENT;SPOT (MINERAL);CRYSTAL;RIM / CORE (MINERAL GRAINS);PRIMARY/SECONDARY;INCLUSION TYPE;SPOT (INCLUSION);MINERAL (INCLUSION);RIM / CORE (INCLUSION);HOSTMINERAL (INCLUSION);HEATING;HEATING TEMPERATURE (?C);SIO2(WT%);TIO2(WT%);ZRO2(WT%);B2O3(WT%);AL2O3(WT%);CR2O3(WT%);LA2O3(WT%);CE2O3(WT%);Y2O3(WT%);V2O3(WT%);NB2O3(WT%);TA2O5(WT%);WO3(WT%);FE2O3T(WT%);FE2O3(WT%);FEOT(WT%);FEO(WT%);CAO(WT%);MGO(WT%);MNO(WT%);BAO(WT%);SRO(WT%);NIO(WT%);ZNO(WT%);CS2O(WT%);RB2O(WT%);K2O(WT%);;;;NA2O(WT%);P2O5(WT%);H2O(WT%);;;;H2OP(WT%);H2OM(WT%);CO2(WT%);C(WT%);F(WT%);CL(WT%);SO2(WT%);SO3(WT%);S(WT%);LOI(WT%);AL(WT%);TI(WT%);FE(WT%);MG(WT%);CA(WT%);K(WT%);NA(WT%);LI(PPM);BE(PPM);B(PPM);C(PPM);F(PPM);NA(PPM);MG(PPM);AL(PPM);P(PPM);S(PPM);CL(PPM);AR40(AT/G);AR40(CCMSTP/G);AR40(MOL/G);AR40(PPB);K(PPM);CA(PPM);SC(PPM);;;;TI(PPM);;;;V(PPM);CR(PPM);MN(PPM);FE(PPM);CO(PPM);NI(PPM);CU(PPM);ZN(PPM);GA(PPM);GE(PPM);AS(PPM);SE(PPM);BR(PPM);RB(PPM): altern. values or methods;;;;SR(PPM): altern. values or methods;;;;Y(PPM): altern. values or methods;;;;ZR(PPM): altern. values or methods;;;;NB(PPM): altern. values or methods;;;;MO(PPM): altern. values or methods;;;;AG(PPM);CD(PPM);IN(PPM);SN(PPM);SB(PPM);TE(PPM);CS(PPM);BA(PPM): altern. values or methods;;;;LA(PPM): altern. values or methods;;;;CE(PPM): altern. values or methods;;;;PR(PPM);ND(PPM): altern. values or methods;;;;SM(PPM): altern. values or methods;;;;EU(PPM);GD(PPM);TB(PPM);DY(PPM);HO(PPM);ER(PPM);TM(PPM);YB(PPM);LU(PPM);HF(PPM);TA(PPM);W(PPM);RE(PPM);AU(PPM);AU(PPB);HG(PPM);HG(PPB);TL(PPM);PB(PPM): altern. values or methods;;;;PB206(PPM);BI(PPM);TH(PPM): altern. values or methods;;;;U(PPM);ND143_ND144;ND143_ND144_INI;EPSILON_ND;EPSILON_ND_INI;SM147_ND144;SR87_SR86;SR87_SR86_INI;EPSILON_SR;EPSILON_SR_INI;RB87_SR86;PB206_PB204;PB206_PB204_INI;PB206_PB207;PB206_PB208;PB207_PB204;PB207_PB204_INI;PB207_PB206;PB208_PB204;PB208_PB204_INI;PB208_PB206;HF176_HF177;HF176_HF177_INI;EPSILON_HF_INI;LU176_HF177;YB176_HF177;AR36_AR39;AR36_AR40;AR37_AR39;AR38_AR39;AR39_AR40;AR40_AR36;AR40_AR39;PB206_U238;PB207_U235;PB208_TH232;TH232_PB204;TH232_U238;U235_PB204;U238_PB204;U238_PB206;D7LI(VS LSVEC);D18O(PER MIL);D18O(VS SMOW);D18O(VS VSMOW);D56FE(VS IRMM-014);D57FE(VS IRMM-014);DD(VS SMOW);ALBITE(MOL%);ANORTHITE(MOL%);CA OLIVINE(MOL%);ENSTATITE(MOL%);FAYALITE(MOL%);FORSTERITE(MOL%);FERROSILITE(MOL%);ORTHOCLASE(MOL%);TEPHROITE(MOL%);ULVOSPINEL(MOL%);WOLLASTONITE(MOL%);AGE(KA): altern. values or methods;;;;AGE(MA): altern. values or methods;;;;;;;;AGE_PB207_PB206(MA);AGE_PB207_U235(MA);AGE_PB206_U238(MA): altern. values or methods;;;;;;AGE_PB208_TH232(MA);
2014;[18586] BACHMANN O. (2014);samp. CRT09-10A;;NORTH AMERICAN CORDILLERA - CENOZOIC/QUATERNARY / CORDILLERA UNITED STATES / COLORADO / SAN JUAN VOLCANIC FIELD / CARPENTER RIDGE TUFF;BACHELOR CALDERA, SOUTHERN EDGE OF CARPENTER RODGE;37.5;-106;38.5;-107.5;;;OUTCROP;;;SUBAERIAL;VOLCANIC ROCK;TRACHYDACITE;;CRYSTAL-RICH PUMICE;27600000;27600000;OLIGOCENE;;;;;MINERAL / COMPONENT (INCL. GROUNDMASS);SANIDINE;CRT09-10ALINE#1.72;;;PRIMARY;;;;;;;;64.32;;;;18.99;;;;;;;;;;;0.1627;;0.2417;;;0.6329;;;;;;10.04;EMP (EPMA);;;4;;;;;;;;;;;;;;;;;;;;;;;;;;;;;;;;;;;;;;;;;;;;;;;;;;;;;;;;;;;;;;;;;;;;;;;;;;;;;;;;;;;;;;;;;;;;;;;;;;;;;;;;;;;;;;;;;;;;;;;;;;;;;;;;;;;;;;;;;;;;;;;;;;;;;;;;;;;;;;;;;;;;;;;;;;;;;;;;;;;;;;;;;;;;;36.7562565959535;1.22737629478529;;;;;;60.7039707543537;;;;;;;;;;;;;;;;;;;;;;;;;
2014;[18586] BACHMANN O. (2014);samp. CRT09-10A;;NORTH AMERICAN CORDILLERA - CENOZOIC/QUATERNARY / CORDILLERA UNITED STATES / COLORADO / SAN JUAN VOLCANIC FIELD / CARPENTER RIDGE TUFF;BACHELOR CALDERA, SOUTHERN EDGE OF CARPENTER RODGE;37.5;-106;38.5;-107.5;;;OUTCROP;;;SUBAERIAL;VOLCANIC ROCK;TRACHYDACITE;;CRYSTAL-RICH PUMICE;27600000;27600000;OLIGOCENE;;;;;MINERAL / COMPONENT (INCL. GROUNDMASS);SANIDINE;CRT09-10ALINE#1.73;;;PRIMARY;;;;;;;;61.96;;;;18.08;;;;;;;;;;;0.5551;;0.3378;;;0.7782;;;;;;9.72;EMP (EPMA);;;3.33;;;;;;;;;;;;;;;;;;;;;;;;;;;;;;;;;;;;;;;;;;;;;;;;;;;;;;;;;;;;;;;;;;;;;;;;;;;;;;;;;;;;;;;;;;;;;;;;;;;;;;;;;;;;;;;;;;;;;;;;;;;;;;;;;;;;;;;;;;;;;;;;;;;;;;;;;;;;;;;;;;;;;;;;;;;;;;;;;;;;;;;;;;;;;33.0100280773502;1.85050857918822;;;;;;63.3986527408227;;;;;;;;;;;;;;;;;;;;;;;;;
2014;[18586] BACHMANN O. (2014);samp. CRT09-10A;;NORTH AMERICAN CORDILLERA - CENOZOIC/QUATERNARY / CORDILLERA UNITED STATES / COLORADO / SAN JUAN VOLCANIC FIELD / CARPENTER RIDGE TUFF;BACHELOR CALDERA, SOUTHERN EDGE OF CARPENTER RODGE;37.5;-106;38.5;-107.5;;;OUTCROP;;;SUBAERIAL;VOLCANIC ROCK;TRACHYDACITE;;CRYSTAL-RICH PUMICE;27600000;27600000;OLIGOCENE;;;;;MINERAL / COMPONENT (INCL. GROUNDMASS);SANIDINE;CRT09-10ALINE#1.74;;;PRIMARY;;;;;;;;63.18;;;;19.11;;;;;;;;;;;0.2265;;0.3166;;;0.9029;;;;;;9.86;EMP (EPMA);;;4.04;;;;;;;;;;;;;;;;;;;;;;;;;;;;;;;;;;;;;;;;;;;;;;;;;;;;;;;;;;;;;;;;;;;;;;;;;;;;;;;;;;;;;;;;;;;;;;;;;;;;;;;;;;;;;;;;;;;;;;;;;;;;;;;;;;;;;;;;;;;;;;;;;;;;;;;;;;;;;;;;;;;;;;;;;;;;;;;;;;;;;;;;;;;;;37.042521099718;1.60420505226636;;;;;;59.4850992554935;;;;;;;;;;;;;;;;;;;;;;;;;
2014;[18586] BACHMANN O. (2014);samp. CRT09-10A;;NORTH AMERICAN CORDILLERA - CENOZOIC/QUATERNARY / CORDILLERA UNITED STATES / COLORADO / SAN JUAN VOLCANIC FIELD / CARPENTER RIDGE TUFF;BACHELOR CALDERA, SOUTHERN EDGE OF CARPENTER RODGE;37.5;-106;38.5;-107.5;;;OUTCROP;;;SUBAERIAL;VOLCANIC ROCK;TRACHYDACITE;;CRYSTAL-RICH PUMICE;27600000;27600000;OLIGOCENE;;;;;MINERAL / COMPONENT (INCL. GROUNDMASS);SANIDINE;CRT09-10ALINE#1.75;;;PRIMARY;;;;;;;;63.72;;;;19.2;;;;;;;;;;;0.1679;;0.3233;;;0.8021;;;;;;9.84;EMP (EPMA);;;3.69;;;;;;;;;;;;;;;;;;;;;;;;;;;;;;;;;;;;;;;;;;;;;;;;;;;;;;;;;;;;;;;;;;;;;;;;;;;;;;;;;;;;;;;;;;;;;;;;;;;;;;;;;;;;;;;;;;;;;;;;;;;;;;;;;;;;;;;;;;;;;;;;;;;;;;;;;;;;;;;;;;;;;;;;;;;;;;;;;;;;;;;;;;;;;35.0621095927434;1.69764617292832;;;;;;61.5203615284058;;;;;;;;;;;;;;;;;;;;;;;;;
2014;[18586] BACHMANN O. (2014);samp. CRT09-10A;;NORTH AMERICAN CORDILLERA - CENOZOIC/QUATERNARY / CORDILLERA UNITED STATES / COLORADO / SAN JUAN VOLCANIC FIELD / CARPENTER RIDGE TUFF;BACHELOR CALDERA, SOUTHERN EDGE OF CARPENTER RODGE;37.5;-106;38.5;-107.5;;;OUTCROP;;;SUBAERIAL;VOLCANIC ROCK;TRACHYDACITE;;CRYSTAL-RICH PUMICE;27600000;27600000;OLIGOCENE;;;;;MINERAL / COMPONENT (INCL. GROUNDMASS);SANIDINE;CRT09-10ALINE#1.76;;;PRIMARY;;;;;;;;63.02;;;;19.27;;;;;;;;;;;0.2312;;0.3181;;;0.8892;;;;;;9.62;EMP (EPMA);;;4.19;;;;;;;;;;;;;;;;;;;;;;;;;;;;;;;;;;;;;;;;;;;;;;;;;;;;;;;;;;;;;;;;;;;;;;;;;;;;;;;;;;;;;;;;;;;;;;;;;;;;;;;;;;;;;;;;;;;;;;;;;;;;;;;;;;;;;;;;;;;;;;;;;;;;;;;;;;;;;;;;;;;;;;;;;;;;;;;;;;;;;;;;;;;;;38.4537464970782;1.61331102799773;;;;;;58.0913958181798;;;;;;;;;;;;;;;;;;;;;;;;;
2014;[18586] BACHMANN O. (2014);samp. CRT09-10A;;NORTH AMERICAN CORDILLERA - CENOZOIC/QUATERNARY / CORDILLERA UNITED STATES / COLORADO / SAN JUAN VOLCANIC FIELD / CARPENTER RIDGE TUFF;BACHELOR CALDERA, SOUTHERN EDGE OF CARPENTER RODGE;37.5;-106;38.5;-107.5;;;OUTCROP;;;SUBAERIAL;VOLCANIC ROCK;TRACHYDACITE;;CRYSTAL-RICH PUMICE;27600000;27600000;OLIGOCENE;;;;;MINERAL / COMPONENT (INCL. GROUNDMASS);SANIDINE;CRT09-10ALINE#1.77;;;PRIMARY;;;;;;;;62.61;;;;19.41;;;;;;;;;;;0.1903;;0.3956;;;1.6359;;;;;;9.9;EMP (EPMA);;;3.86;;;;;;;;;;;;;;;;;;;;;;;;;;;;;;;;;;;;;;;;;;;;;;;;;;;;;;;;;;;;;;;;;;;;;;;;;;;;;;;;;;;;;;;;;;;;;;;;;;;;;;;;;;;;;;;;;;;;;;;;;;;;;;;;;;;;;;;;;;;;;;;;;;;;;;;;;;;;;;;;;;;;;;;;;;;;;;;;;;;;;;;;;;;;;35.2132852310532;1.99436810569475;;;;;;59.4246371110356;;;;;;;;;;;;;;;;;;;;;;;;;
2014;[18586] BACHMANN O. (2014);samp. CRT09-10A;;NORTH AMERICAN CORDILLERA - CENOZOIC/QUATERNARY / CORDILLERA UNITED STATES / COLORADO / SAN JUAN VOLCANIC FIELD / CARPENTER RIDGE TUFF;BACHELOR CALDERA, SOUTHERN EDGE OF CARPENTER RODGE;37.5;-106;38.5;-107.5;;;OUTCROP;;;SUBAERIAL;VOLCANIC ROCK;TRACHYDACITE;;CRYSTAL-RICH PUMICE;27600000;27600000;OLIGOCENE;;;;;MINERAL / COMPONENT (INCL. GROUNDMASS);SANIDINE;CRT09-10ALINE#1.78;;;PRIMARY;;;;;;;;62.84;;;;19.38;;;;;;;;;;;0.1788;;0.3795;;;1.4405;;;;;;9.36;EMP (EPMA);;;3.91;;;;;;;;;;;;;;;;;;;;;;;;;;;;;;;;;;;;;;;;;;;;;;;;;;;;;;;;;;;;;;;;;;;;;;;;;;;;;;;;;;;;;;;;;;;;;;;;;;;;;;;;;;;;;;;;;;;;;;;;;;;;;;;;;;;;;;;;;;;;;;;;;;;;;;;;;;;;;;;;;;;;;;;;;;;;;;;;;;;;;;;;;;;;;36.8747158327102;1.97785068680913;;;;;;58.0817746342863;;;;;;;;;;;;;;;;;;;;;;;;;
2014;[18586] BACHMANN O. (2014);samp. CRT09-10A;;NORTH AMERICAN CORDILLERA - CENOZOIC/QUATERNARY / CORDILLERA UNITED STATES / COLORADO / SAN JUAN VOLCANIC FIELD / CARPENTER RIDGE TUFF;BACHELOR CALDERA, SOUTHERN EDGE OF CARPENTER RODGE;37.5;-106;38.5;-107.5;;;OUTCROP;;;SUBAERIAL;VOLCANIC ROCK;TRACHYDACITE;;CRYSTAL-RICH PUMICE;27600000;27600000;OLIGOCENE;;;;;MINERAL / COMPONENT (INCL. GROUNDMASS);SANIDINE;CRT09-10ALINE#1.79;;;PRIMARY;;;;;;;;62.73;;;;19.36;;;;;;;;;;;0.2067;;0.3648;;;1.678;;;;;;9.57;EMP (EPMA);;;4.06;;;;;;;;;;;;;;;;;;;;;;;;;;;;;;;;;;;;;;;;;;;;;;;;;;;;;;;;;;;;;;;;;;;;;;;;;;;;;;;;;;;;;;;;;;;;;;;;;;;;;;;;;;;;;;;;;;;;;;;;;;;;;;;;;;;;;;;;;;;;;;;;;;;;;;;;;;;;;;;;;;;;;;;;;;;;;;;;;;;;;;;;;;;;;37.1212953604413;1.8432392773554;;;;;;57.5733009968411;;;;;;;;;;;;;;;;;;;;;;;;;
2014;[18586] BACHMANN O. (2014);samp. CRT09-10A;;NORTH AMERICAN CORDILLERA - CENOZOIC/QUATERNARY / CORDILLERA UNITED STATES / COLORADO / SAN JUAN VOLCANIC FIELD / CARPENTER RIDGE TUFF;BACHELOR CALDERA, SOUTHERN EDGE OF CARPENTER RODGE;37.5;-106;38.5;-107.5;;;OUTCROP;;;SUBAERIAL;VOLCANIC ROCK;TRACHYDACITE;;CRYSTAL-RICH PUMICE;27600000;27600000;OLIGOCENE;;;;;MINERAL / COMPONENT (INCL. GROUNDMASS);SANIDINE;CRT09-10ALINE#1.80;;;PRIMARY;;;;;;;;62.8;;;;19.4;;;;;;;;;;;0.2401;;0.4546;;;1.6899;;;;;;9.78;EMP (EPMA);;;3.91;;;;;;;;;;;;;;;;;;;;;;;;;;;;;;;;;;;;;;;;;;;;;;;;;;;;;;;;;;;;;;;;;;;;;;;;;;;;;;;;;;;;;;;;;;;;;;;;;;;;;;;;;;;;;;;;;;;;;;;;;;;;;;;;;;;;;;;;;;;;;;;;;;;;;;;;;;;;;;;;;;;;;;;;;;;;;;;;;;;;;;;;;;;;;35.6179696059521;2.28850376044649;;;;;;58.6196687770133;;;;;;;;;;;;;;;;;;;;;;;;;
2014;[18586] BACHMANN O. (2014);samp. CRT09-10A;;NORTH AMERICAN CORDILLERA - CENOZOIC/QUATERNARY / CORDILLERA UNITED STATES / COLORADO / SAN JUAN VOLCANIC FIELD / CARPENTER RIDGE TUFF;BACHELOR CALDERA, SOUTHERN EDGE OF CARPENTER RODGE;37.5;-106;38.5;-107.5;;;OUTCROP;;;SUBAERIAL;VOLCANIC ROCK;TRACHYDACITE;;CRYSTAL-RICH PUMICE;27600000;27600000;OLIGOCENE;;;;;MINERAL / COMPONENT (INCL. GROUNDMASS);SANIDINE;CRT09-10ALINE#1.81;;;PRIMARY;;;;;;;;62.88;;;;19.46;;;;;;;;;;;0.198;;0.3755;;;1.5949;;;;;;9.34;EMP (EPMA);;;4.01;;;;;;;;;;;;;;;;;;;;;;;;;;;;;;;;;;;;;;;;;;;;;;;;;;;;;;;;;;;;;;;;;;;;;;;;;;;;;;;;;;;;;;;;;;;;;;;;;;;;;;;;;;;;;;;;;;;;;;;;;;;;;;;;;;;;;;;;;;;;;;;;;;;;;;;;;;;;;;;;;;;;;;;;;;;;;;;;;;;;;;;;;;;;;37.3964474161797;1.93519936674617;;;;;;57.3119195476137;;;;;;;;;;;;;;;;;;;;;;;;;
2014;[18586] BACHMANN O. (2014);samp. CRT09-10A;;NORTH AMERICAN CORDILLERA - CENOZOIC/QUATERNARY / CORDILLERA UNITED STATES / COLORADO / SAN JUAN VOLCANIC FIELD / CARPENTER RIDGE TUFF;BACHELOR CALDERA, SOUTHERN EDGE OF CARPENTER RODGE;37.5;-106;38.5;-107.5;;;OUTCROP;;;SUBAERIAL;VOLCANIC ROCK;TRACHYDACITE;;CRYSTAL-RICH PUMICE;27600000;27600000;OLIGOCENE;;;;;MINERAL / COMPONENT (INCL. GROUNDMASS);SANIDINE;CRT09-10ALINE#1.82;;;PRIMARY;;;;;;;;62.57;;;;19.35;;;;;;;;;;;0.2097;;0.409;;;1.8154;;;;;;9.16;EMP (EPMA);;;3.89;;;;;;;;;;;;;;;;;;;;;;;;;;;;;;;;;;;;;;;;;;;;;;;;;;;;;;;;;;;;;;;;;;;;;;;;;;;;;;;;;;;;;;;;;;;;;;;;;;;;;;;;;;;;;;;;;;;;;;;;;;;;;;;;;;;;;;;;;;;;;;;;;;;;;;;;;;;;;;;;;;;;;;;;;;;;;;;;;;;;;;;;;;;;;36.8623284284953;2.14183626816953;;;;;;57.113758435795;;;;;;;;;;;;;;;;;;;;;;;;;
2014;[18586] BACHMANN O. (2014);samp. CRT09-10A;;NORTH AMERICAN CORDILLERA - CENOZOIC/QUATERNARY / CORDILLERA UNITED STATES / COLORADO / SAN JUAN VOLCANIC FIELD / CARPENTER RIDGE TUFF;BACHELOR CALDERA, SOUTHERN EDGE OF CARPENTER RODGE;37.5;-106;38.5;-107.5;;;OUTCROP;;;SUBAERIAL;VOLCANIC ROCK;TRACHYDACITE;;CRYSTAL-RICH PUMICE;27600000;27600000;OLIGOCENE;;;;;MINERAL / COMPONENT (INCL. GROUNDMASS);SANIDINE;CRT09-10ALINE#1.83;;;PRIMARY;;;;;;;;62.64;;;;19.35;;;;;;;;;;;0.2423;;0.4169;;;2.1342;;;;;;9.58;EMP (EPMA);;;3.79;;;;;;;;;;;;;;;;;;;;;;;;;;;;;;;;;;;;;;;;;;;;;;;;;;;;;;;;;;;;;;;;;;;;;;;;;;;;;;;;;;;;;;;;;;;;;;;;;;;;;;;;;;;;;;;;;;;;;;;;;;;;;;;;;;;;;;;;;;;;;;;;;;;;;;;;;;;;;;;;;;;;;;;;;;;;;;;;;;;;;;;;;;;;;35.0749353181929;2.13215788798875;;;;;;58.3358166173315;;;;;;;;;;;;;;;;;;;;;;;;;
2014;[18586] BACHMANN O. (2014);samp. CRT09-10A;;NORTH AMERICAN CORDILLERA - CENOZOIC/QUATERNARY / CORDILLERA UNITED STATES / COLORADO / SAN JUAN VOLCANIC FIELD / CARPENTER RIDGE TUFF;BACHELOR CALDERA, SOUTHERN EDGE OF CARPENTER RODGE;37.5;-106;38.5;-107.5;;;OUTCROP;;;SUBAERIAL;VOLCANIC ROCK;TRACHYDACITE;;CRYSTAL-RICH PUMICE;27600000;27600000;OLIGOCENE;;;;;MINERAL / COMPONENT (INCL. GROUNDMASS);SANIDINE;CRT09-10ALINE#1.84;;;PRIMARY;;;;;;;;62.21;;;;19.36;;;;;;;;;;;0.2189;;0.3974;;;2.1398;;;;;;9.32;EMP (EPMA);;;3.88;;;;;;;;;;;;;;;;;;;;;;;;;;;;;;;;;;;;;;;;;;;;;;;;;;;;;;;;;;;;;;;;;;;;;;;;;;;;;;;;;;;;;;;;;;;;;;;;;;;;;;;;;;;;;;;;;;;;;;;;;;;;;;;;;;;;;;;;;;;;;;;;;;;;;;;;;;;;;;;;;;;;;;;;;;;;;;;;;;;;;;;;;;;;;36.2114266698329;2.04961159947908;;;;;;57.2323957943484;;;;;;;;;;;;;;;;;;;;;;;;;
2014;[18586] BACHMANN O. (2014);samp. CRT09-10A;;NORTH AMERICAN CORDILLERA - CENOZOIC/QUATERNARY / CORDILLERA UNITED STATES / COLORADO / SAN JUAN VOLCANIC FIELD / CARPENTER RIDGE TUFF;BACHELOR CALDERA, SOUTHERN EDGE OF CARPENTER RODGE;37.5;-106;38.5;-107.5;;;OUTCROP;;;SUBAERIAL;VOLCANIC ROCK;TRACHYDACITE;;CRYSTAL-RICH PUMICE;27600000;27600000;OLIGOCENE;;;;;MINERAL / COMPONENT (INCL. GROUNDMASS);SANIDINE;CRT09-10ALINE#1.85;;;PRIMARY;;;;;;;;62.31;;;;19.54;;;;;;;;;;;0.2305;;0.4068;;;2.3247;;;;;;9.26;EMP (EPMA);;;3.98;;;;;;;;;;;;;;;;;;;;;;;;;;;;;;;;;;;;;;;;;;;;;;;;;;;;;;;;;;;;;;;;;;;;;;;;;;;;;;;;;;;;;;;;;;;;;;;;;;;;;;;;;;;;;;;;;;;;;;;;;;;;;;;;;;;;;;;;;;;;;;;;;;;;;;;;;;;;;;;;;;;;;;;;;;;;;;;;;;;;;;;;;;;;;36.7759479854452;2.07726328949627;;;;;;56.2994166513877;;;;;;;;;;;;;;;;;;;;;;;;;
2014;[18586] BACHMANN O. (2014);samp. CRT09-10A;;NORTH AMERICAN CORDILLERA - CENOZOIC/QUATERNARY / CORDILLERA UNITED STATES / COLORADO / SAN JUAN VOLCANIC FIELD / CARPENTER RIDGE TUFF;BACHELOR CALDERA, SOUTHERN EDGE OF CARPENTER RODGE;37.5;-106;38.5;-107.5;;;OUTCROP;;;SUBAERIAL;VOLCANIC ROCK;TRACHYDACITE;;CRYSTAL-RICH PUMICE;27600000;27600000;OLIGOCENE;;;;;MINERAL / COMPONENT (INCL. GROUNDMASS);SANIDINE;CRT09-10ALINE#1.86;;;PRIMARY;;;;;;;;62.63;;;;19.3;;;;;;;;;;;0.2002;;0.4862;;;2.001;;;;;;9.31;EMP (EPMA);;;3.99;;;;;;;;;;;;;;;;;;;;;;;;;;;;;;;;;;;;;;;;;;;;;;;;;;;;;;;;;;;;;;;;;;;;;;;;;;;;;;;;;;;;;;;;;;;;;;;;;;;;;;;;;;;;;;;;;;;;;;;;;;;;;;;;;;;;;;;;;;;;;;;;;;;;;;;;;;;;;;;;;;;;;;;;;;;;;;;;;;;;;;;;;;;;;36.821633432677;2.47956162542507;;;;;;56.5316861638399;;;;;;;;;;;;;;;;;;;;;;;;;
2014;[18586] BACHMANN O. (2014);samp. CRT09-10A;;NORTH AMERICAN CORDILLERA - CENOZOIC/QUATERNARY / CORDILLERA UNITED STATES / COLORADO / SAN JUAN VOLCANIC FIELD / CARPENTER RIDGE TUFF;BACHELOR CALDERA, SOUTHERN EDGE OF CARPENTER RODGE;37.5;-106;38.5;-107.5;;;OUTCROP;;;SUBAERIAL;VOLCANIC ROCK;TRACHYDACITE;;CRYSTAL-RICH PUMICE;27600000;27600000;OLIGOCENE;;;;;MINERAL / COMPONENT (INCL. GROUNDMASS);SANIDINE;CRT09-10ALINE#1.87;;;PRIMARY;;;;;;;;62.49;;;;19.57;;;;;;;;;;;0.2165;;0.4282;;;2.0878;;;;;;9.62;EMP (EPMA);;;4.04;;;;;;;;;;;;;;;;;;;;;;;;;;;;;;;;;;;;;;;;;;;;;;;;;;;;;;;;;;;;;;;;;;;;;;;;;;;;;;;;;;;;;;;;;;;;;;;;;;;;;;;;;;;;;;;;;;;;;;;;;;;;;;;;;;;;;;;;;;;;;;;;;;;;;;;;;;;;;;;;;;;;;;;;;;;;;;;;;;;;;;;;;;;;;36.4702240087683;2.13615875838255;;;;;;57.1405270123921;;;;;;;;;;;;;;;;;;;;;;;;;
2014;[18586] BACHMANN O. (2014);samp. CRT09-10A;;NORTH AMERICAN CORDILLERA - CENOZOIC/QUATERNARY / CORDILLERA UNITED STATES / COLORADO / SAN JUAN VOLCANIC FIELD / CARPENTER RIDGE TUFF;BACHELOR CALDERA, SOUTHERN EDGE OF CARPENTER RODGE;37.5;-106;38.5;-107.5;;;OUTCROP;;;SUBAERIAL;VOLCANIC ROCK;TRACHYDACITE;;CRYSTAL-RICH PUMICE;27600000;27600000;OLIGOCENE;;;;;MINERAL / COMPONENT (INCL. GROUNDMASS);SANIDINE;CRT09-10ALINE#1.88;;;PRIMARY;;;;;;;;63.18;;;;19.35;;;;;;;;;;;0.1961;;0.4788;;;2.2141;;;;;;8.89;EMP (EPMA);;;4.29;;;;;;;;;;;;;;;;;;;;;;;;;;;;;;;;;;;;;;;;;;;;;;;;;;;;;;;;;;;;;;;;;;;;;;;;;;;;;;;;;;;;;;;;;;;;;;;;;;;;;;;;;;;;;;;;;;;;;;;;;;;;;;;;;;;;;;;;;;;;;;;;;;;;;;;;;;;;;;;;;;;;;;;;;;;;;;;;;;;;;;;;;;;;;39.3445540732916;2.42667309134882;;;;;;53.6464761600519;;;;;;;;;;;;;;;;;;;;;;;;;
2014;[18586] BACHMANN O. (2014);samp. CRT09-10A;;NORTH AMERICAN CORDILLERA - CENOZOIC/QUATERNARY / CORDILLERA UNITED STATES / COLORADO / SAN JUAN VOLCANIC FIELD / CARPENTER RIDGE TUFF;BACHELOR CALDERA, SOUTHERN EDGE OF CARPENTER RODGE;37.5;-106;38.5;-107.5;;;OUTCROP;;;SUBAERIAL;VOLCANIC ROCK;TRACHYDACITE;;CRYSTAL-RICH PUMICE;27600000;27600000;OLIGOCENE;;;;;MINERAL / COMPONENT (INCL. GROUNDMASS);SANIDINE;CRT09-10ALINE#1.89;;;PRIMARY;;;;;;;;63.04;;;;19.48;;;;;;;;;;;0.2055;;0.3902;;;2.1075;;;;;;8.89;EMP (EPMA);;;4.33;;;;;;;;;;;;;;;;;;;;;;;;;;;;;;;;;;;;;;;;;;;;;;;;;;;;;;;;;;;;;;;;;;;;;;;;;;;;;;;;;;;;;;;;;;;;;;;;;;;;;;;;;;;;;;;;;;;;;;;;;;;;;;;;;;;;;;;;;;;;;;;;;;;;;;;;;;;;;;;;;;;;;;;;;;;;;;;;;;;;;;;;;;;;;39.8320208617663;1.98363383214883;;;;;;53.8094197833815;;;;;;;;;;;;;;;;;;;;;;;;;
2014;[18586] BACHMANN O. (2014);samp. CRT09-10A;;NORTH AMERICAN CORDILLERA - CENOZOIC/QUATERNARY / CORDILLERA UNITED STATES / COLORADO / SAN JUAN VOLCANIC FIELD / CARPENTER RIDGE TUFF;BACHELOR CALDERA, SOUTHERN EDGE OF CARPENTER RODGE;37.5;-106;38.5;-107.5;;;OUTCROP;;;SUBAERIAL;VOLCANIC ROCK;TRACHYDACITE;;CRYSTAL-RICH PUMICE;27600000;27600000;OLIGOCENE;;;;;MINERAL / COMPONENT (INCL. GROUNDMASS);SANIDINE;CRT09-10ALINE#1.90;;;PRIMARY;;;;;;;;63.34;;;;19.23;;;;;;;;;;;0.1674;;0.5071;;;1.9991;;;;;;9.21;EMP (EPMA);;;4.27;;;;;;;;;;;;;;;;;;;;;;;;;;;;;;;;;;;;;;;;;;;;;;;;;;;;;;;;;;;;;;;;;;;;;;;;;;;;;;;;;;;;;;;;;;;;;;;;;;;;;;;;;;;;;;;;;;;;;;;;;;;;;;;;;;;;;;;;;;;;;;;;;;;;;;;;;;;;;;;;;;;;;;;;;;;;;;;;;;;;;;;;;;;;;38.6029026914579;2.5334684193412;;;;;;54.7852718564568;;;;;;;;;;;;;;;;;;;;;;;;;
2014;[18586] BACHMANN O. (2014);samp. CRT09-10A;;NORTH AMERICAN CORDILLERA - CENOZOIC/QUATERNARY / CORDILLERA UNITED STATES / COLORADO / SAN JUAN VOLCANIC FIELD / CARPENTER RIDGE TUFF;BACHELOR CALDERA, SOUTHERN EDGE OF CARPENTER RODGE;37.5;-106;38.5;-107.5;;;OUTCROP;;;SUBAERIAL;VOLCANIC ROCK;TRACHYDACITE;;CRYSTAL-RICH PUMICE;27600000;27600000;OLIGOCENE;;;;;MINERAL / COMPONENT (INCL. GROUNDMASS);SANIDINE;CRT09-10ALINE#1.91;;;PRIMARY;;;;;;;;63.86;;;;19.29;;;;;;;;;;;0.2338;;0.4793;;;1.9377;;;;;;9.13;EMP (EPMA);;;4.12;;;;;;;;;;;;;;;;;;;;;;;;;;;;;;;;;;;;;;;;;;;;;;;;;;;;;;;;;;;;;;;;;;;;;;;;;;;;;;;;;;;;;;;;;;;;;;;;;;;;;;;;;;;;;;;;;;;;;;;;;;;;;;;;;;;;;;;;;;;;;;;;;;;;;;;;;;;;;;;;;;;;;;;;;;;;;;;;;;;;;;;;;;;;;38.0442751948465;2.44584721755691;;;;;;55.4721475916352;;;;;;;;;;;;;;;;;;;;;;;;;
2014;[18586] BACHMANN O. (2014);samp. CRT09-10A;;NORTH AMERICAN CORDILLERA - CENOZOIC/QUATERNARY / CORDILLERA UNITED STATES / COLORADO / SAN JUAN VOLCANIC FIELD / CARPENTER RIDGE TUFF;BACHELOR CALDERA, SOUTHERN EDGE OF CARPENTER RODGE;37.5;-106;38.5;-107.5;;;OUTCROP;;;SUBAERIAL;VOLCANIC ROCK;TRACHYDACITE;;CRYSTAL-RICH PUMICE;27600000;27600000;OLIGOCENE;;;;;MINERAL / COMPONENT (INCL. GROUNDMASS);SANIDINE;CRT09-10ALINE#1.92;;;PRIMARY;;;;;;;;63.21;;;;19.26;;;;;;;;;;;0.2265;;0.5369;;;2.2451;;;;;;9.06;EMP (EPMA);;;4.22;;;;;;;;;;;;;;;;;;;;;;;;;;;;;;;;;;;;;;;;;;;;;;;;;;;;;;;;;;;;;;;;;;;;;;;;;;;;;;;;;;;;;;;;;;;;;;;;;;;;;;;;;;;;;;;;;;;;;;;;;;;;;;;;;;;;;;;;;;;;;;;;;;;;;;;;;;;;;;;;;;;;;;;;;;;;;;;;;;;;;;;;;;;;;38.4173208321977;2.70108234925154;;;;;;54.2693881266845;;;;;;;;;;;;;;;;;;;;;;;;;