Year;CITATION;SAMPLE NAME;UNIQUE_ID;LOCATION;LOCATION COMMENT;LATITUDE (MIN.);LONGITUDE (MIN.);LATITUDE (MAX.);LONGITUDE (MAX.);ELEVATION (MIN.);ELEVATION (MAX.);SAMPLING TECHNIQUE;DRILLING DEPTH (MIN.);DRILLING DEPTH (MAX.);LAND/SEA (SAMPLING);ROCK TYPE;ROCK NAME;ROCK TEXTURE;SAMPLE COMMENT;AGE (MIN.);AGE (MAX.);GEOLOGICAL AGE;GEOLOGICAL AGE PREFIX;ERUPTION YEAR;ALTERATION;ALTERATION TYPE;TYPE OF MATERIAL;MINERAL / COMPONENT;SPOT (MINERAL);CRYSTAL;RIM / CORE (MINERAL GRAINS);PRIMARY/SECONDARY;INCLUSION TYPE;SPOT (INCLUSION);MINERAL (INCLUSION);RIM / CORE (INCLUSION);HOSTMINERAL (INCLUSION);HEATING;HEATING TEMPERATURE (?C);SIO2(WT%);TIO2(WT%);ZRO2(WT%);B2O3(WT%);AL2O3(WT%);CR2O3(WT%);LA2O3(WT%);CE2O3(WT%);Y2O3(WT%);V2O3(WT%);NB2O3(WT%);TA2O5(WT%);WO3(WT%);FE2O3T(WT%);FE2O3(WT%);FEOT(WT%);FEO(WT%);CAO(WT%);MGO(WT%);MNO(WT%);BAO(WT%);SRO(WT%);NIO(WT%);ZNO(WT%);CS2O(WT%);RB2O(WT%);K2O(WT%);;;;NA2O(WT%);P2O5(WT%);H2O(WT%);;;;H2OP(WT%);H2OM(WT%);CO2(WT%);C(WT%);F(WT%);CL(WT%);SO2(WT%);SO3(WT%);S(WT%);LOI(WT%);AL(WT%);TI(WT%);FE(WT%);MG(WT%);CA(WT%);K(WT%);NA(WT%);LI(PPM);BE(PPM);B(PPM);C(PPM);F(PPM);NA(PPM);MG(PPM);AL(PPM);P(PPM);S(PPM);CL(PPM);AR40(AT/G);AR40(CCMSTP/G);AR40(MOL/G);AR40(PPB);K(PPM);CA(PPM);SC(PPM);;;;TI(PPM);;;;V(PPM);CR(PPM);MN(PPM);FE(PPM);CO(PPM);NI(PPM);CU(PPM);ZN(PPM);GA(PPM);GE(PPM);AS(PPM);SE(PPM);BR(PPM);RB(PPM): altern. values or methods;;;;SR(PPM): altern. values or methods;;;;Y(PPM): altern. values or methods;;;;ZR(PPM): altern. values or methods;;;;NB(PPM): altern. values or methods;;;;MO(PPM): altern. values or methods;;;;AG(PPM);CD(PPM);IN(PPM);SN(PPM);SB(PPM);TE(PPM);CS(PPM);BA(PPM): altern. values or methods;;;;LA(PPM): altern. values or methods;;;;CE(PPM): altern. values or methods;;;;PR(PPM);ND(PPM): altern. values or methods;;;;SM(PPM): altern. values or methods;;;;EU(PPM);GD(PPM);TB(PPM);DY(PPM);HO(PPM);ER(PPM);TM(PPM);YB(PPM);LU(PPM);HF(PPM);TA(PPM);W(PPM);RE(PPM);AU(PPM);AU(PPB);HG(PPM);HG(PPB);TL(PPM);PB(PPM): altern. values or methods;;;;PB206(PPM);BI(PPM);TH(PPM): altern. values or methods;;;;U(PPM);ND143_ND144;ND143_ND144_INI;EPSILON_ND;EPSILON_ND_INI;SM147_ND144;SR87_SR86;SR87_SR86_INI;EPSILON_SR;EPSILON_SR_INI;RB87_SR86;PB206_PB204;PB206_PB204_INI;PB206_PB207;PB206_PB208;PB207_PB204;PB207_PB204_INI;PB207_PB206;PB208_PB204;PB208_PB204_INI;PB208_PB206;HF176_HF177;HF176_HF177_INI;EPSILON_HF_INI;LU176_HF177;YB176_HF177;AR36_AR39;AR36_AR40;AR37_AR39;AR38_AR39;AR39_AR40;AR40_AR36;AR40_AR39;PB206_U238;PB207_U235;PB208_TH232;TH232_PB204;TH232_U238;U235_PB204;U238_PB204;U238_PB206;D7LI(VS LSVEC);D18O(PER MIL);D18O(VS SMOW);D18O(VS VSMOW);D56FE(VS IRMM-014);D57FE(VS IRMM-014);DD(VS SMOW);ALBITE(MOL%);ANORTHITE(MOL%);CA OLIVINE(MOL%);ENSTATITE(MOL%);FAYALITE(MOL%);FORSTERITE(MOL%);FERROSILITE(MOL%);ORTHOCLASE(MOL%);TEPHROITE(MOL%);ULVOSPINEL(MOL%);WOLLASTONITE(MOL%);AGE(KA): altern. values or methods;;;;AGE(MA): altern. values or methods;;;;;;;;AGE_PB207_PB206(MA);AGE_PB207_U235(MA);AGE_PB206_U238(MA): altern. values or methods;;;;;;AGE_PB208_TH232(MA);
2015;[19926] YANG WU-BIN (2015);samp. TW9;;CENTRAL ASIAN FOLDBELT - MESOZOIC / CHINA - MESOZOIC / HEILONGJIANG PROVINCE / MANITU FORMATION;TUQUAN;45.6325;121.3817;45.6325;121.3817;;;OUTCROP;;;SUBAERIAL;VOLCANIC ROCK;TRACHYDACITE;;;;;CRETACEOUS;LOWER;;;;MINERAL / COMPONENT (INCL. GROUNDMASS);ZIRCON;;;;PRIMARY;;;;;;;;;;;;;;;;;;;;;;;;;;;;;;;;;;;;;;;;;;;;;;;;;;;;;;;;;;;;;;;;;;;;;;;;;;;;;;;;;;;;;;;;;;;;;;;;;;;;;;;;;;;;;;;;;;;;;;;;;;;;;;;;;;;;;;;;;;;;;;;;;;;;;;;;;;;;;;;;;;;;;;;;;;;;;;;450;Q_ICPMS_LA;;;1220;;;;;;;;;;;;;;;;;0.05144;;;;;;;;;;;;;;;;0.02491;0.1767;;;;;;;;;;;;;;;;;;;;;;;;;;;;;;;;;;;;;261;165;159;PB206_U238 AGE;;;;;;
2015;[19926] YANG WU-BIN (2015);samp. TW9;;CENTRAL ASIAN FOLDBELT - MESOZOIC / CHINA - MESOZOIC / HEILONGJIANG PROVINCE / MANITU FORMATION;TUQUAN;45.6325;121.3817;45.6325;121.3817;;;OUTCROP;;;SUBAERIAL;VOLCANIC ROCK;TRACHYDACITE;;;;;CRETACEOUS;LOWER;;;;MINERAL / COMPONENT (INCL. GROUNDMASS);ZIRCON;;;;PRIMARY;;;;;;;;;;;;;;;;;;;;;;;;;;;;;;;;;;;;;;;;;;;;;;;;;;;;;;;;;;;;;;;;;;;;;;;;;;;;;;;;;;;;;;;;;;;;;;;;;;;;;;;;;;;;;;;;;;;;;;;;;;;;;;;;;;;;;;;;;;;;;;;;;;;;;;;;;;;;;;;;;;;;;;;;;;;;;;;920;Q_ICPMS_LA;;;2236;;;;;;;;;;;;;;;;;0.04859;;;;;;;;;;;;;;;;0.02297;0.15388;;;;;;;;;;;;;;;;;;;;;;;;;;;;;;;;;;;;;128;145;146;PB206_U238 AGE;;;;;;
2015;[19926] YANG WU-BIN (2015);samp. TW9;;CENTRAL ASIAN FOLDBELT - MESOZOIC / CHINA - MESOZOIC / HEILONGJIANG PROVINCE / MANITU FORMATION;TUQUAN;45.6325;121.3817;45.6325;121.3817;;;OUTCROP;;;SUBAERIAL;VOLCANIC ROCK;TRACHYDACITE;;;;;CRETACEOUS;LOWER;;;;MINERAL / COMPONENT (INCL. GROUNDMASS);ZIRCON;;;;PRIMARY;;;;;;;;;;;;;;;;;;;;;;;;;;;;;;;;;;;;;;;;;;;;;;;;;;;;;;;;;;;;;;;;;;;;;;;;;;;;;;;;;;;;;;;;;;;;;;;;;;;;;;;;;;;;;;;;;;;;;;;;;;;;;;;;;;;;;;;;;;;;;;;;;;;;;;;;;;;;;;;;;;;;;;;;;;;;;;;1128;Q_ICPMS_LA;;;2505;;;;;;;;;;;;;;;;;0.05102;;;;;;;;;;;;;;;;0.02166;0.15322;;;;;;;;;;;;;;;;;;;;;;;;;;;;;;;;;;;;;242;145;138;PB206_U238 AGE;;;;;;
2015;[19926] YANG WU-BIN (2015);samp. TW9;;CENTRAL ASIAN FOLDBELT - MESOZOIC / CHINA - MESOZOIC / HEILONGJIANG PROVINCE / MANITU FORMATION;TUQUAN;45.6325;121.3817;45.6325;121.3817;;;OUTCROP;;;SUBAERIAL;VOLCANIC ROCK;TRACHYDACITE;;;;;CRETACEOUS;LOWER;;;;MINERAL / COMPONENT (INCL. GROUNDMASS);ZIRCON;;;;PRIMARY;;;;;;;;;;;;;;;;;;;;;;;;;;;;;;;;;;;;;;;;;;;;;;;;;;;;;;;;;;;;;;;;;;;;;;;;;;;;;;;;;;;;;;;;;;;;;;;;;;;;;;;;;;;;;;;;;;;;;;;;;;;;;;;;;;;;;;;;;;;;;;;;;;;;;;;;;;;;;;;;;;;;;;;;;;;;;;;976;Q_ICPMS_LA;;;2051;;;;;;;;;;;;;;;;;0.05026;;;;;;;;;;;;;;;;0.0215;0.14764;;;;;;;;;;;;;;;;;;;;;;;;;;;;;;;;;;;;;207;140;137;PB206_U238 AGE;;;;;;
2015;[19926] YANG WU-BIN (2015);samp. TW9;;CENTRAL ASIAN FOLDBELT - MESOZOIC / CHINA - MESOZOIC / HEILONGJIANG PROVINCE / MANITU FORMATION;TUQUAN;45.6325;121.3817;45.6325;121.3817;;;OUTCROP;;;SUBAERIAL;VOLCANIC ROCK;TRACHYDACITE;;;;;CRETACEOUS;LOWER;;;;MINERAL / COMPONENT (INCL. GROUNDMASS);ZIRCON;;;;PRIMARY;;;;;;;;;;;;;;;;;;;;;;;;;;;;;;;;;;;;;;;;;;;;;;;;;;;;;;;;;;;;;;;;;;;;;;;;;;;;;;;;;;;;;;;;;;;;;;;;;;;;;;;;;;;;;;;;;;;;;;;;;;;;;;;;;;;;;;;;;;;;;;;;;;;;;;;;;;;;;;;;;;;;;;;;;;;;;;;469;Q_ICPMS_LA;;;980;;;;;;;;;;;;;;;;;0.05554;;;;;;;;;;;;;;;;0.02202;0.16844;;;;;;;;;;;;;;;;;;;;;;;;;;;;;;;;;;;;;434;158;140;PB206_U238 AGE;;;;;;
2015;[19926] YANG WU-BIN (2015);samp. TW9;;CENTRAL ASIAN FOLDBELT - MESOZOIC / CHINA - MESOZOIC / HEILONGJIANG PROVINCE / MANITU FORMATION;TUQUAN;45.6325;121.3817;45.6325;121.3817;;;OUTCROP;;;SUBAERIAL;VOLCANIC ROCK;TRACHYDACITE;;;;;CRETACEOUS;LOWER;;;;MINERAL / COMPONENT (INCL. GROUNDMASS);ZIRCON;;;;PRIMARY;;;;;;;;;;;;;;;;;;;;;;;;;;;;;;;;;;;;;;;;;;;;;;;;;;;;;;;;;;;;;;;;;;;;;;;;;;;;;;;;;;;;;;;;;;;;;;;;;;;;;;;;;;;;;;;;;;;;;;;;;;;;;;;;;;;;;;;;;;;;;;;;;;;;;;;;;;;;;;;;;;;;;;;;;;;;;;;1115;Q_ICPMS_LA;;;2383;;;;;;;;;;;;;;;;;0.05034;;;;;;;;;;;;;;;;0.02248;0.15618;;;;;;;;;;;;;;;;;;;;;;;;;;;;;;;;;;;;;211;147;143;PB206_U238 AGE;;;;;;
2015;[19926] YANG WU-BIN (2015);samp. TW9;;CENTRAL ASIAN FOLDBELT - MESOZOIC / CHINA - MESOZOIC / HEILONGJIANG PROVINCE / MANITU FORMATION;TUQUAN;45.6325;121.3817;45.6325;121.3817;;;OUTCROP;;;SUBAERIAL;VOLCANIC ROCK;TRACHYDACITE;;;;;CRETACEOUS;LOWER;;;;MINERAL / COMPONENT (INCL. GROUNDMASS);ZIRCON;;;;PRIMARY;;;;;;;;;;;;;;;;;;;;;;;;;;;;;;;;;;;;;;;;;;;;;;;;;;;;;;;;;;;;;;;;;;;;;;;;;;;;;;;;;;;;;;;;;;;;;;;;;;;;;;;;;;;;;;;;;;;;;;;;;;;;;;;;;;;;;;;;;;;;;;;;;;;;;;;;;;;;;;;;;;;;;;;;;;;;;;;1885;Q_ICPMS_LA;;;2584;;;;;;;;;;;;;;;;;0.04985;;;;;;;;;;;;;;;;0.02183;0.14977;;;;;;;;;;;;;;;;;;;;;;;;;;;;;;;;;;;;;188;142;139;PB206_U238 AGE;;;;;;
2015;[19926] YANG WU-BIN (2015);samp. TW9;;CENTRAL ASIAN FOLDBELT - MESOZOIC / CHINA - MESOZOIC / HEILONGJIANG PROVINCE / MANITU FORMATION;TUQUAN;45.6325;121.3817;45.6325;121.3817;;;OUTCROP;;;SUBAERIAL;VOLCANIC ROCK;TRACHYDACITE;;;;;CRETACEOUS;LOWER;;;;MINERAL / COMPONENT (INCL. GROUNDMASS);ZIRCON;;;;PRIMARY;;;;;;;;;;;;;;;;;;;;;;;;;;;;;;;;;;;;;;;;;;;;;;;;;;;;;;;;;;;;;;;;;;;;;;;;;;;;;;;;;;;;;;;;;;;;;;;;;;;;;;;;;;;;;;;;;;;;;;;;;;;;;;;;;;;;;;;;;;;;;;;;;;;;;;;;;;;;;;;;;;;;;;;;;;;;;;;643;Q_ICPMS_LA;;;1136;;;;;;;;;;;;;;;;;0.05161;;;;;;;;;;;;;;;;0.02363;0.16439;;;;;;;;;;;;;;;;;;;;;;;;;;;;;;;;;;;;;268;155;151;PB206_U238 AGE;;;;;;
2015;[19926] YANG WU-BIN (2015);samp. TW9;;CENTRAL ASIAN FOLDBELT - MESOZOIC / CHINA - MESOZOIC / HEILONGJIANG PROVINCE / MANITU FORMATION;TUQUAN;45.6325;121.3817;45.6325;121.3817;;;OUTCROP;;;SUBAERIAL;VOLCANIC ROCK;TRACHYDACITE;;;;;CRETACEOUS;LOWER;;;;MINERAL / COMPONENT (INCL. GROUNDMASS);ZIRCON;;;;PRIMARY;;;;;;;;;;;;;;;;;;;;;;;;;;;;;;;;;;;;;;;;;;;;;;;;;;;;;;;;;;;;;;;;;;;;;;;;;;;;;;;;;;;;;;;;;;;;;;;;;;;;;;;;;;;;;;;;;;;;;;;;;;;;;;;;;;;;;;;;;;;;;;;;;;;;;;;;;;;;;;;;;;;;;;;;;;;;;;;756;Q_ICPMS_LA;;;1533;;;;;;;;;;;;;;;;;0.04349;;;;;;;;;;;;;;;;0.02402;0.14376;;;;;;;;;;;;;;;;;;;;;;;;;;;;;;;;;;;;;;136;153;PB206_U238 AGE;;;;;;
2015;[19926] YANG WU-BIN (2015);samp. TW9;;CENTRAL ASIAN FOLDBELT - MESOZOIC / CHINA - MESOZOIC / HEILONGJIANG PROVINCE / MANITU FORMATION;TUQUAN;45.6325;121.3817;45.6325;121.3817;;;OUTCROP;;;SUBAERIAL;VOLCANIC ROCK;TRACHYDACITE;;;;;CRETACEOUS;LOWER;;;;MINERAL / COMPONENT (INCL. GROUNDMASS);ZIRCON;;;;PRIMARY;;;;;;;;;;;;;;;;;;;;;;;;;;;;;;;;;;;;;;;;;;;;;;;;;;;;;;;;;;;;;;;;;;;;;;;;;;;;;;;;;;;;;;;;;;;;;;;;;;;;;;;;;;;;;;;;;;;;;;;;;;;;;;;;;;;;;;;;;;;;;;;;;;;;;;;;;;;;;;;;;;;;;;;;;;;;;;;734;Q_ICPMS_LA;;;1535;;;;;;;;;;;;;;;;;0.04989;;;;;;;;;;;;;;;;0.02291;0.15813;;;;;;;;;;;;;;;;;;;;;;;;;;;;;;;;;;;;;190;149;146;PB206_U238 AGE;;;;;;
2015;[19926] YANG WU-BIN (2015);samp. TW9;;CENTRAL ASIAN FOLDBELT - MESOZOIC / CHINA - MESOZOIC / HEILONGJIANG PROVINCE / MANITU FORMATION;TUQUAN;45.6325;121.3817;45.6325;121.3817;;;OUTCROP;;;SUBAERIAL;VOLCANIC ROCK;TRACHYDACITE;;;;;CRETACEOUS;LOWER;;;;MINERAL / COMPONENT (INCL. GROUNDMASS);ZIRCON;;;;PRIMARY;;;;;;;;;;;;;;;;;;;;;;;;;;;;;;;;;;;;;;;;;;;;;;;;;;;;;;;;;;;;;;;;;;;;;;;;;;;;;;;;;;;;;;;;;;;;;;;;;;;;;;;;;;;;;;;;;;;;;;;;;;;;;;;;;;;;;;;;;;;;;;;;;;;;;;;;;;;;;;;;;;;;;;;;;;;;;;;2037;Q_ICPMS_LA;;;3262;;;;;;;;;;;;;;;;;0.05164;;;;;;;;;;;;;;;;0.02237;0.16113;;;;;;;;;;;;;;;;;;;;;;;;;;;;;;;;;;;;;270;152;143;PB206_U238 AGE;;;;;;
2015;[19926] YANG WU-BIN (2015);samp. TW9;;CENTRAL ASIAN FOLDBELT - MESOZOIC / CHINA - MESOZOIC / HEILONGJIANG PROVINCE / MANITU FORMATION;TUQUAN;45.6325;121.3817;45.6325;121.3817;;;OUTCROP;;;SUBAERIAL;VOLCANIC ROCK;TRACHYDACITE;;;;;CRETACEOUS;LOWER;;;;MINERAL / COMPONENT (INCL. GROUNDMASS);ZIRCON;;;;PRIMARY;;;;;;;;;;;;;;;;;;;;;;;;;;;;;;;;;;;;;;;;;;;;;;;;;;;;;;;;;;;;;;;;;;;;;;;;;;;;;;;;;;;;;;;;;;;;;;;;;;;;;;;;;;;;;;;;;;;;;;;;;;;;;;;;;;;;;;;;;;;;;;;;;;;;;;;;;;;;;;;;;;;;;;;;;;;;;;;718;Q_ICPMS_LA;;;1985;;;;;;;;;;;;;;;;;0.0477;;;;;;;;;;;;;;;;0.02206;0.1454;;;;;;;;;;;;;;;;;;;;;;;;;;;;;;;;;;;;;84;138;141;PB206_U238 AGE;;;;;;
2015;[19926] YANG WU-BIN (2015);samp. TW9;;CENTRAL ASIAN FOLDBELT - MESOZOIC / CHINA - MESOZOIC / HEILONGJIANG PROVINCE / MANITU FORMATION;TUQUAN;45.6325;121.3817;45.6325;121.3817;;;OUTCROP;;;SUBAERIAL;VOLCANIC ROCK;TRACHYDACITE;;;;;CRETACEOUS;LOWER;;;;MINERAL / COMPONENT (INCL. GROUNDMASS);ZIRCON;;;;PRIMARY;;;;;;;;;;;;;;;;;;;;;;;;;;;;;;;;;;;;;;;;;;;;;;;;;;;;;;;;;;;;;;;;;;;;;;;;;;;;;;;;;;;;;;;;;;;;;;;;;;;;;;;;;;;;;;;;;;;;;;;;;;;;;;;;;;;;;;;;;;;;;;;;;;;;;;;;;;;;;;;;;;;;;;;;;;;;;;;1770;Q_ICPMS_LA;;;2942;;;;;;;;;;;;;;;;;0.05103;;;;;;;;;;;;;;;;0.02216;0.15674;;;;;;;;;;;;;;;;;;;;;;;;;;;;;;;;;;;;;242;148;141;PB206_U238 AGE;;;;;;
2015;[19926] YANG WU-BIN (2015);samp. TW9;;CENTRAL ASIAN FOLDBELT - MESOZOIC / CHINA - MESOZOIC / HEILONGJIANG PROVINCE / MANITU FORMATION;TUQUAN;45.6325;121.3817;45.6325;121.3817;;;OUTCROP;;;SUBAERIAL;VOLCANIC ROCK;TRACHYDACITE;;;;;CRETACEOUS;LOWER;;;;MINERAL / COMPONENT (INCL. GROUNDMASS);ZIRCON;;;;PRIMARY;;;;;;;;;;;;;;;;;;;;;;;;;;;;;;;;;;;;;;;;;;;;;;;;;;;;;;;;;;;;;;;;;;;;;;;;;;;;;;;;;;;;;;;;;;;;;;;;;;;;;;;;;;;;;;;;;;;;;;;;;;;;;;;;;;;;;;;;;;;;;;;;;;;;;;;;;;;;;;;;;;;;;;;;;;;;;;;1460;Q_ICPMS_LA;;;2725;;;;;;;;;;;;;;;;;0.05007;;;;;;;;;;;;;;;;0.02098;0.14485;;;;;;;;;;;;;;;;;;;;;;;;;;;;;;;;;;;;;198;137;134;PB206_U238 AGE;;;;;;
2015;[19926] YANG WU-BIN (2015);samp. TW9;;CENTRAL ASIAN FOLDBELT - MESOZOIC / CHINA - MESOZOIC / HEILONGJIANG PROVINCE / MANITU FORMATION;TUQUAN;45.6325;121.3817;45.6325;121.3817;;;OUTCROP;;;SUBAERIAL;VOLCANIC ROCK;TRACHYDACITE;;;;;CRETACEOUS;LOWER;;;;MINERAL / COMPONENT (INCL. GROUNDMASS);ZIRCON;;;;PRIMARY;;;;;;;;;;;;;;;;;;;;;;;;;;;;;;;;;;;;;;;;;;;;;;;;;;;;;;;;;;;;;;;;;;;;;;;;;;;;;;;;;;;;;;;;;;;;;;;;;;;;;;;;;;;;;;;;;;;;;;;;;;;;;;;;;;;;;;;;;;;;;;;;;;;;;;;;;;;;;;;;;;;;;;;;;;;;;;;1202;Q_ICPMS_LA;;;2413;;;;;;;;;;;;;;;;;0.0519;;;;;;;;;;;;;;;;0.02103;0.15154;;;;;;;;;;;;;;;;;;;;;;;;;;;;;;;;;;;;;281;143;134;PB206_U238 AGE;;;;;;
2015;[19926] YANG WU-BIN (2015);samp. TW9;;CENTRAL ASIAN FOLDBELT - MESOZOIC / CHINA - MESOZOIC / HEILONGJIANG PROVINCE / MANITU FORMATION;TUQUAN;45.6325;121.3817;45.6325;121.3817;;;OUTCROP;;;SUBAERIAL;VOLCANIC ROCK;TRACHYDACITE;;;;;CRETACEOUS;LOWER;;;;MINERAL / COMPONENT (INCL. GROUNDMASS);ZIRCON;;;;PRIMARY;;;;;;;;;;;;;;;;;;;;;;;;;;;;;;;;;;;;;;;;;;;;;;;;;;;;;;;;;;;;;;;;;;;;;;;;;;;;;;;;;;;;;;;;;;;;;;;;;;;;;;;;;;;;;;;;;;;;;;;;;;;;;;;;;;;;;;;;;;;;;;;;;;;;;;;;;;;;;;;;;;;;;;;;;;;;;;;662;Q_ICPMS_LA;;;1606;;;;;;;;;;;;;;;;;0.05116;;;;;;;;;;;;;;;;0.02206;0.15445;;;;;;;;;;;;;;;;;;;;;;;;;;;;;;;;;;;;;248;146;141;PB206_U238 AGE;;;;;;
2015;[19926] YANG WU-BIN (2015);samp. TW9;;CENTRAL ASIAN FOLDBELT - MESOZOIC / CHINA - MESOZOIC / HEILONGJIANG PROVINCE / MANITU FORMATION;TUQUAN;45.6325;121.3817;45.6325;121.3817;;;OUTCROP;;;SUBAERIAL;VOLCANIC ROCK;TRACHYDACITE;;;;;CRETACEOUS;LOWER;;;;MINERAL / COMPONENT (INCL. GROUNDMASS);ZIRCON;;;;PRIMARY;;;;;;;;;;;;;;;;;;;;;;;;;;;;;;;;;;;;;;;;;;;;;;;;;;;;;;;;;;;;;;;;;;;;;;;;;;;;;;;;;;;;;;;;;;;;;;;;;;;;;;;;;;;;;;;;;;;;;;;;;;;;;;;;;;;;;;;;;;;;;;;;;;;;;;;;;;;;;;;;;;;;;;;;;;;;;;;544;Q_ICPMS_LA;;;1326;;;;;;;;;;;;;;;;;0.04767;;;;;;;;;;;;;;;;0.02168;0.1425;;;;;;;;;;;;;;;;;;;;;;;;;;;;;;;;;;;;;83;135;138;PB206_U238 AGE;;;;;;
2015;[19926] YANG WU-BIN (2015);samp. TW9;;CENTRAL ASIAN FOLDBELT - MESOZOIC / CHINA - MESOZOIC / HEILONGJIANG PROVINCE / MANITU FORMATION;TUQUAN;45.6325;121.3817;45.6325;121.3817;;;OUTCROP;;;SUBAERIAL;VOLCANIC ROCK;TRACHYDACITE;;;;;CRETACEOUS;LOWER;;;;MINERAL / COMPONENT (INCL. GROUNDMASS);ZIRCON;;;;PRIMARY;;;;;;;;;;;;;;;;;;;;;;;;;;;;;;;;;;;;;;;;;;;;;;;;;;;;;;;;;;;;;;;;;;;;;;;;;;;;;;;;;;;;;;;;;;;;;;;;;;;;;;;;;;;;;;;;;;;;;;;;;;;;;;;;;;;;;;;;;;;;;;;;;;;;;;;;;;;;;;;;;;;;;;;;;;;;;;;405;Q_ICPMS_LA;;;1007;;;;;;;;;;;;;;;;;0.06385;;;;;;;;;;;;;;;;0.02454;0.20106;;;;;;;;;;;;;;;;;;;;;;;;;;;;;;;;;;;;;737;186;156;PB206_U238 AGE;;;;;;
2015;[19926] YANG WU-BIN (2015);samp. TW9;;CENTRAL ASIAN FOLDBELT - MESOZOIC / CHINA - MESOZOIC / HEILONGJIANG PROVINCE / MANITU FORMATION;TUQUAN;45.6325;121.3817;45.6325;121.3817;;;OUTCROP;;;SUBAERIAL;VOLCANIC ROCK;TRACHYDACITE;;;;;CRETACEOUS;LOWER;;;;MINERAL / COMPONENT (INCL. GROUNDMASS);ZIRCON;;;;PRIMARY;;;;;;;;;;;;;;;;;;;;;;;;;;;;;;;;;;;;;;;;;;;;;;;;;;;;;;;;;;;;;;;;;;;;;;;;;;;;;;;;;;;;;;;;;;;;;;;;;;;;;;;;;;;;;;;;;;;;;;;;;;;;;;;;;;;;;;;;;;;;;;;;;;;;;;;;;;;;;;;;;;;;;;;;;;;;;;;1791;Q_ICPMS_LA;;;2960;;;;;;;;;;;;;;;;;0.05198;;;;;;;;;;;;;;;;0.02132;0.15283;;;;;;;;;;;;;;;;;;;;;;;;;;;;;;;;;;;;;285;144;136;PB206_U238 AGE;;;;;;
2015;[19926] YANG WU-BIN (2015);samp. TW9;;CENTRAL ASIAN FOLDBELT - MESOZOIC / CHINA - MESOZOIC / HEILONGJIANG PROVINCE / MANITU FORMATION;TUQUAN;45.6325;121.3817;45.6325;121.3817;;;OUTCROP;;;SUBAERIAL;VOLCANIC ROCK;TRACHYDACITE;;;;;CRETACEOUS;LOWER;;;;MINERAL / COMPONENT (INCL. GROUNDMASS);ZIRCON;;;;PRIMARY;;;;;;;;;;;;;;;;;;;;;;;;;;;;;;;;;;;;;;;;;;;;;;;;;;;;;;;;;;;;;;;;;;;;;;;;;;;;;;;;;;;;;;;;;;;;;;;;;;;;;;;;;;;;;;;;;;;;;;;;;;;;;;;;;;;;;;;;;;;;;;;;;;;;;;;;;;;;;;;;;;;;;;;;;;;;;;;2372;Q_ICPMS_LA;;;2762;;;;;;;;;;;;;;;;;0.05115;;;;;;;;;;;;;;;;0.02162;0.15245;;;;;;;;;;;;;;;;;;;;;;;;;;;;;;;;;;;;;247;144;138;PB206_U238 AGE;;;;;;
2015;[19926] YANG WU-BIN (2015);samp. TW9;;CENTRAL ASIAN FOLDBELT - MESOZOIC / CHINA - MESOZOIC / HEILONGJIANG PROVINCE / MANITU FORMATION;TUQUAN;45.6325;121.3817;45.6325;121.3817;;;OUTCROP;;;SUBAERIAL;VOLCANIC ROCK;TRACHYDACITE;;;;;CRETACEOUS;LOWER;;;;MINERAL / COMPONENT (INCL. GROUNDMASS);ZIRCON;;;;PRIMARY;;;;;;;;;;;;;;;;;;;;;;;;;;;;;;;;;;;;;;;;;;;;;;;;;;;;;;;;;;;;;;;;;;;;;;;;;;;;;;;;;;;;;;;;;;;;;;;;;;;;;;;;;;;;;;;;;;;;;;;;;;;;;;;;;;;;;;;;;;;;;;;;;;;;;;;;;;;;;;;;;;;;;;;;;;;;;;;877;Q_ICPMS_LA;;;1930;;;;;;;;;;;;;;;;;0.05259;;;;;;;;;;;;;;;;0.02287;0.16482;;;;;;;;;;;;;;;;;;;;;;;;;;;;;;;;;;;;;311;155;146;PB206_U238 AGE;;;;;;
2015;[19926] YANG WU-BIN (2015);samp. TW9;;CENTRAL ASIAN FOLDBELT - MESOZOIC / CHINA - MESOZOIC / HEILONGJIANG PROVINCE / MANITU FORMATION;TUQUAN;45.6325;121.3817;45.6325;121.3817;;;OUTCROP;;;SUBAERIAL;VOLCANIC ROCK;TRACHYDACITE;;;;;CRETACEOUS;LOWER;;;;MINERAL / COMPONENT (INCL. GROUNDMASS);ZIRCON;;;;PRIMARY;;;;;;;;;;;;;;;;;;;;;;;;;;;;;;;;;;;;;;;;;;;;;;;;;;;;;;;;;;;;;;;;;;;;;;;;;;;;;;;;;;;;;;;;;;;;;;;;;;;;;;;;;;;;;;;;;;;;;;;;;;;;;;;;;;;;;;;;;;;;;;;;;;;;;;;;;;;;;;;;;;;;;;;;;;;;;;;815;Q_ICPMS_LA;;;1501;;;;;;;;;;;;;;;;;0.05603;;;;;;;;;;;;;;;;0.02181;0.16766;;;;;;;;;;;;;;;;;;;;;;;;;;;;;;;;;;;;;454;157;139;PB206_U238 AGE;;;;;;
2016;[19999] SHANG-GUAN SHI-MAI (2016);samp. HA2-5379;;TARIM LARGE IGNEOUS PROVINCE / XINJIANG PROVINCE;HALAHATANG, HA2 WELL;41.3336;83.3458;41.3336;83.3458;;;DRILL HOLE ;;;SUBAERIAL;VOLCANIC ROCK;TRACHYDACITE;;;;;;;;;;MINERAL / COMPONENT (INCL. GROUNDMASS);ZIRCON;HA2@1;;;PRIMARY;;;;;;;;;;;;;;;;;;;;;;;;;;;;;;;;;;;;;;;;;;;;;;;;;;;;;;;;;;;;;;;;;;;;;;;;;;;;;;;;;;;;;;;;;;;;;;;;;;;;;;;;;;;;;;;;;;;;;;;;;;;;;;;;;;;;;;;;;;;;;;;;;;;;;;;;;;;;;;;;;;;;;;;;;;;;;;;59;SIMS;;;73;;;;;;;;;;;;;;;;;0.05398;;;;;;;;;;;;;;;;0.0462;0.34364;;;;;;;;;;;;;;;;;;;;;;;;;;;;;;;;;;;;;;;291;PB206_U238 AGE;;;;;;
2016;[19999] SHANG-GUAN SHI-MAI (2016);samp. HA2-5379;;TARIM LARGE IGNEOUS PROVINCE / XINJIANG PROVINCE;HALAHATANG, HA2 WELL;41.3336;83.3458;41.3336;83.3458;;;DRILL HOLE ;;;SUBAERIAL;VOLCANIC ROCK;TRACHYDACITE;;;;;;;;;;MINERAL / COMPONENT (INCL. GROUNDMASS);ZIRCON;HA2@2;;;PRIMARY;;;;;;;;;;;;;;;;;;;;;;;;;;;;;;;;;;;;;;;;;;;;;;;;;;;;;;;;;;;;;;;;;;;;;;;;;;;;;;;;;;;;;;;;;;;;;;;;;;;;;;;;;;;;;;;;;;;;;;;;;;;;;;;;;;;;;;;;;;;;;;;;;;;;;;;;;;;;;;;;;;;;;;;;;;;;;;;84;SIMS;;;98;;;;;;;;;;;;;;;;;0.0483;;;;;;;;;;;;;;;;0.0465;0.30932;;;;;;;;;;;;;;;;;;;;;;;;;;;;;;;;;;;;;;;292.7;PB206_U238 AGE;;;;;;
2016;[19999] SHANG-GUAN SHI-MAI (2016);samp. HA2-5379;;TARIM LARGE IGNEOUS PROVINCE / XINJIANG PROVINCE;HALAHATANG, HA2 WELL;41.3336;83.3458;41.3336;83.3458;;;DRILL HOLE ;;;SUBAERIAL;VOLCANIC ROCK;TRACHYDACITE;;;;;;;;;;MINERAL / COMPONENT (INCL. GROUNDMASS);ZIRCON;HA2@3;;;PRIMARY;;;;;;;;;;;;;;;;;;;;;;;;;;;;;;;;;;;;;;;;;;;;;;;;;;;;;;;;;;;;;;;;;;;;;;;;;;;;;;;;;;;;;;;;;;;;;;;;;;;;;;;;;;;;;;;;;;;;;;;;;;;;;;;;;;;;;;;;;;;;;;;;;;;;;;;;;;;;;;;;;;;;;;;;;;;;;;;50;SIMS;;;82;;;;;;;;;;;;;;;;;0.05387;;;;;;;;;;;;;;;;0.0461;0.34245;;;;;;;;;;;;;;;;;;;;;;;;;;;;;;;;;;;;;;;290.6;PB206_U238 AGE;;;;;;
2016;[19999] SHANG-GUAN SHI-MAI (2016);samp. HA2-5379;;TARIM LARGE IGNEOUS PROVINCE / XINJIANG PROVINCE;HALAHATANG, HA2 WELL;41.3336;83.3458;41.3336;83.3458;;;DRILL HOLE ;;;SUBAERIAL;VOLCANIC ROCK;TRACHYDACITE;;;;;;;;;;MINERAL / COMPONENT (INCL. GROUNDMASS);ZIRCON;HA2@4;;;PRIMARY;;;;;;;;;;;;;;;;;;;;;;;;;;;;;;;;;;;;;;;;;;;;;;;;;;;;;;;;;;;;;;;;;;;;;;;;;;;;;;;;;;;;;;;;;;;;;;;;;;;;;;;;;;;;;;;;;;;;;;;;;;;;;;;;;;;;;;;;;;;;;;;;;;;;;;;;;;;;;;;;;;;;;;;;;;;;;;;44;SIMS;;;74;;;;;;;;;;;;;;;;;0.04044;;;;;;;;;;;;;;;;0.0443;0.24729;;;;;;;;;;;;;;;;;;;;;;;;;;;;;;;;;;;;;;;279.7;PB206_U238 AGE;;;;;;
2016;[19999] SHANG-GUAN SHI-MAI (2016);samp. HA2-5379;;TARIM LARGE IGNEOUS PROVINCE / XINJIANG PROVINCE;HALAHATANG, HA2 WELL;41.3336;83.3458;41.3336;83.3458;;;DRILL HOLE ;;;SUBAERIAL;VOLCANIC ROCK;TRACHYDACITE;;;;;;;;;;MINERAL / COMPONENT (INCL. GROUNDMASS);ZIRCON;HA2@5;;;PRIMARY;;;;;;;;;;;;;;;;;;;;;;;;;;;;;;;;;;;;;;;;;;;;;;;;;;;;;;;;;;;;;;;;;;;;;;;;;;;;;;;;;;;;;;;;;;;;;;;;;;;;;;;;;;;;;;;;;;;;;;;;;;;;;;;;;;;;;;;;;;;;;;;;;;;;;;;;;;;;;;;;;;;;;;;;;;;;;;;45;SIMS;;;83;;;;;;;;;;;;;;;;;0.04839;;;;;;;;;;;;;;;;0.0453;0.30198;;;;;;;;;;;;;;;;;;;;;;;;;;;;;;;;;;;;;;;285.4;PB206_U238 AGE;;;;;;