Year;CITATION;SAMPLE NAME;UNIQUE_ID;LOCATION;LOCATION COMMENT;LATITUDE (MIN.);LONGITUDE (MIN.);LATITUDE (MAX.);LONGITUDE (MAX.);ELEVATION (MIN.);ELEVATION (MAX.);SAMPLING TECHNIQUE;DRILLING DEPTH (MIN.);DRILLING DEPTH (MAX.);LAND/SEA (SAMPLING);ROCK TYPE;ROCK NAME;ROCK TEXTURE;SAMPLE COMMENT;AGE (MIN.);AGE (MAX.);GEOLOGICAL AGE;GEOLOGICAL AGE PREFIX;ERUPTION YEAR;ALTERATION;ALTERATION TYPE;TYPE OF MATERIAL;MINERAL / COMPONENT;SPOT (MINERAL);CRYSTAL;RIM / CORE (MINERAL GRAINS);PRIMARY/SECONDARY;INCLUSION TYPE;SPOT (INCLUSION);MINERAL (INCLUSION);RIM / CORE (INCLUSION);HOSTMINERAL (INCLUSION);HEATING;HEATING TEMPERATURE (?C);SIO2(WT%);TIO2(WT%);ZRO2(WT%);B2O3(WT%);AL2O3(WT%);CR2O3(WT%);LA2O3(WT%);CE2O3(WT%);Y2O3(WT%);V2O3(WT%);NB2O3(WT%);TA2O5(WT%);WO3(WT%);FE2O3T(WT%);FE2O3(WT%);FEOT(WT%);FEO(WT%);CAO(WT%);MGO(WT%);MNO(WT%);BAO(WT%);SRO(WT%);NIO(WT%);ZNO(WT%);CS2O(WT%);RB2O(WT%);K2O(WT%);;;;NA2O(WT%);P2O5(WT%);H2O(WT%);;;;H2OP(WT%);H2OM(WT%);CO2(WT%);C(WT%);F(WT%);CL(WT%);SO2(WT%);SO3(WT%);S(WT%);LOI(WT%);AL(WT%);TI(WT%);FE(WT%);MG(WT%);CA(WT%);K(WT%);NA(WT%);LI(PPM);BE(PPM);B(PPM);C(PPM);F(PPM);NA(PPM);MG(PPM);AL(PPM);P(PPM);S(PPM);CL(PPM);AR40(AT/G);AR40(CCMSTP/G);AR40(MOL/G);AR40(PPB);K(PPM);CA(PPM);SC(PPM);;;;TI(PPM);;;;V(PPM);CR(PPM);MN(PPM);FE(PPM);CO(PPM);NI(PPM);CU(PPM);ZN(PPM);GA(PPM);GE(PPM);AS(PPM);SE(PPM);BR(PPM);RB(PPM): altern. values or methods;;;;SR(PPM): altern. values or methods;;;;Y(PPM): altern. values or methods;;;;ZR(PPM): altern. values or methods;;;;NB(PPM): altern. values or methods;;;;MO(PPM): altern. values or methods;;;;AG(PPM);CD(PPM);IN(PPM);SN(PPM);SB(PPM);TE(PPM);CS(PPM);BA(PPM): altern. values or methods;;;;LA(PPM): altern. values or methods;;;;CE(PPM): altern. values or methods;;;;PR(PPM);ND(PPM): altern. values or methods;;;;SM(PPM): altern. values or methods;;;;EU(PPM);GD(PPM);TB(PPM);DY(PPM);HO(PPM);ER(PPM);TM(PPM);YB(PPM);LU(PPM);HF(PPM);TA(PPM);W(PPM);RE(PPM);AU(PPM);AU(PPB);HG(PPM);HG(PPB);TL(PPM);PB(PPM): altern. values or methods;;;;PB206(PPM);BI(PPM);TH(PPM): altern. values or methods;;;;U(PPM);ND143_ND144;ND143_ND144_INI;EPSILON_ND;EPSILON_ND_INI;SM147_ND144;SR87_SR86;SR87_SR86_INI;EPSILON_SR;EPSILON_SR_INI;RB87_SR86;PB206_PB204;PB206_PB204_INI;PB206_PB207;PB206_PB208;PB207_PB204;PB207_PB204_INI;PB207_PB206;PB208_PB204;PB208_PB204_INI;PB208_PB206;HF176_HF177;HF176_HF177_INI;EPSILON_HF_INI;LU176_HF177;YB176_HF177;AR36_AR39;AR36_AR40;AR37_AR39;AR38_AR39;AR39_AR40;AR40_AR36;AR40_AR39;PB206_U238;PB207_U235;PB208_TH232;TH232_PB204;TH232_U238;U235_PB204;U238_PB204;U238_PB206;D7LI(VS LSVEC);D18O(PER MIL);D18O(VS SMOW);D18O(VS VSMOW);D56FE(VS IRMM-014);D57FE(VS IRMM-014);DD(VS SMOW);ALBITE(MOL%);ANORTHITE(MOL%);CA OLIVINE(MOL%);ENSTATITE(MOL%);FAYALITE(MOL%);FORSTERITE(MOL%);FERROSILITE(MOL%);ORTHOCLASE(MOL%);TEPHROITE(MOL%);ULVOSPINEL(MOL%);WOLLASTONITE(MOL%);AGE(KA): altern. values or methods;;;;AGE(MA): altern. values or methods;;;;;;;;AGE_PB207_PB206(MA);AGE_PB207_U235(MA);AGE_PB206_U238(MA): altern. values or methods;;;;;;AGE_PB208_TH232(MA);
2018;[21910] LECHMANN A. (2018);samp. 58;;ANATOLIA-IRAN BELT / IRAN / LESSER CAUCASUS;;37.7024;45.9785;37.7024;45.9785;;;OUTCROP;;;SUBAERIAL;VOLCANIC ROCK;TRACHYDACITE;TRACHYTIC, PORPHYRITIC;;;;MIOCENE;;;;;MINERAL / COMPONENT (INCL. GROUNDMASS);ZIRCON;AZ14-058_FA_1;;;PRIMARY;;;;;;;;;;;;;;;;;;;;;;;;;;;;;;;;;;;;;;;;;;;;;;;;;;;;;;;;;;;;;;;;;;;;;;;;;;;;;;;;;;;;;;;;;;;;;;;;;;;;;;;;;;;;;;;;;;;;;;;;;;;;;;;;;;;;;;;;;;;;;;;;;;;;;;;;;;;;;;;;;;;;;;;;;;;;;;;140;ICPMS_LA;;;508;;;;;;;;;;;;;;;;;0.0539;;;;;;;;;;;;;;;;0.000824;0.00613;;;;;;;;;;;;;;;;;;;;;;;;;;;;;6.2;PB207_U235  AGE;5.31;PB206_U238  AGE;;;;;5.28210604191129;;;;;;;;;
2018;[21910] LECHMANN A. (2018);samp. 58;;ANATOLIA-IRAN BELT / IRAN / LESSER CAUCASUS;;37.7024;45.9785;37.7024;45.9785;;;OUTCROP;;;SUBAERIAL;VOLCANIC ROCK;TRACHYDACITE;TRACHYTIC, PORPHYRITIC;;;;MIOCENE;;;;;MINERAL / COMPONENT (INCL. GROUNDMASS);ZIRCON;AZ14-058_FA_2;;;PRIMARY;;;;;;;;;;;;;;;;;;;;;;;;;;;;;;;;;;;;;;;;;;;;;;;;;;;;;;;;;;;;;;;;;;;;;;;;;;;;;;;;;;;;;;;;;;;;;;;;;;;;;;;;;;;;;;;;;;;;;;;;;;;;;;;;;;;;;;;;;;;;;;;;;;;;;;;;;;;;;;;;;;;;;;;;;;;;;;;83.2;ICPMS_LA;;;338;;;;;;;;;;;;;;;;;0.0418;;;;;;;;;;;;;;;;0.000814;0.0047;;;;;;;;;;;;;;;;;;;;;;;;;;;;;4.8;PB207_U235  AGE;5.24;PB206_U238  AGE;;;;;5.20993662086291;;;;;;;;;
2018;[21910] LECHMANN A. (2018);samp. 58;;ANATOLIA-IRAN BELT / IRAN / LESSER CAUCASUS;;37.7024;45.9785;37.7024;45.9785;;;OUTCROP;;;SUBAERIAL;VOLCANIC ROCK;TRACHYDACITE;TRACHYTIC, PORPHYRITIC;;;;MIOCENE;;;;;MINERAL / COMPONENT (INCL. GROUNDMASS);ZIRCON;AZ14-058_FB_1;;;PRIMARY;;;;;;;;;;;;;;;;;;;;;;;;;;;;;;;;;;;;;;;;;;;;;;;;;;;;;;;;;;;;;;;;;;;;;;;;;;;;;;;;;;;;;;;;;;;;;;;;;;;;;;;;;;;;;;;;;;;;;;;;;;;;;;;;;;;;;;;;;;;;;;;;;;;;;;;;;;;;;;;;;;;;;;;;;;;;;;;153.9;ICPMS_LA;;;286;;;;;;;;;;;;;;;;;0.0413;;;;;;;;;;;;;;;;0.000803;0.00449;;;;;;;;;;;;;;;;;;;;;;;;;;;;;4.55;PB207_U235  AGE;5.18;PB206_U238  AGE;;;;;5.26373435442625;;;;;;;;;
2018;[21910] LECHMANN A. (2018);samp. 58;;ANATOLIA-IRAN BELT / IRAN / LESSER CAUCASUS;;37.7024;45.9785;37.7024;45.9785;;;OUTCROP;;;SUBAERIAL;VOLCANIC ROCK;TRACHYDACITE;TRACHYTIC, PORPHYRITIC;;;;MIOCENE;;;;;MINERAL / COMPONENT (INCL. GROUNDMASS);ZIRCON;AZ14-058_FB_2;;;PRIMARY;;;;;;;;;;;;;;;;;;;;;;;;;;;;;;;;;;;;;;;;;;;;;;;;;;;;;;;;;;;;;;;;;;;;;;;;;;;;;;;;;;;;;;;;;;;;;;;;;;;;;;;;;;;;;;;;;;;;;;;;;;;;;;;;;;;;;;;;;;;;;;;;;;;;;;;;;;;;;;;;;;;;;;;;;;;;;;;341;ICPMS_LA;;;504;;;;;;;;;;;;;;;;;0.049;;;;;;;;;;;;;;;;0.000828;0.0056;;;;;;;;;;;;;;;;;;;;;;;;;;;;;5.7;PB207_U235  AGE;5.34;PB206_U238  AGE;;;;;5.41963612722792;;;;;;;;;
2018;[21910] LECHMANN A. (2018);samp. 58;;ANATOLIA-IRAN BELT / IRAN / LESSER CAUCASUS;;37.7024;45.9785;37.7024;45.9785;;;OUTCROP;;;SUBAERIAL;VOLCANIC ROCK;TRACHYDACITE;TRACHYTIC, PORPHYRITIC;;;;MIOCENE;;;;;MINERAL / COMPONENT (INCL. GROUNDMASS);ZIRCON;AZ14-058_FB_3;;;PRIMARY;;;;;;;;;;;;;;;;;;;;;;;;;;;;;;;;;;;;;;;;;;;;;;;;;;;;;;;;;;;;;;;;;;;;;;;;;;;;;;;;;;;;;;;;;;;;;;;;;;;;;;;;;;;;;;;;;;;;;;;;;;;;;;;;;;;;;;;;;;;;;;;;;;;;;;;;;;;;;;;;;;;;;;;;;;;;;;;506;ICPMS_LA;;;881;;;;;;;;;;;;;;;;;0.0492;;;;;;;;;;;;;;;;0.000815;0.00529;;;;;;;;;;;;;;;;;;;;;;;;;;;;;5.35;PB207_U235  AGE;5.25;PB206_U238  AGE;;;;;5.33984827520259;;;;;;;;;
2018;[21910] LECHMANN A. (2018);samp. 58;;ANATOLIA-IRAN BELT / IRAN / LESSER CAUCASUS;;37.7024;45.9785;37.7024;45.9785;;;OUTCROP;;;SUBAERIAL;VOLCANIC ROCK;TRACHYDACITE;TRACHYTIC, PORPHYRITIC;;;;MIOCENE;;;;;MINERAL / COMPONENT (INCL. GROUNDMASS);ZIRCON;AZ14-058_FB_4;;;PRIMARY;;;;;;;;;;;;;;;;;;;;;;;;;;;;;;;;;;;;;;;;;;;;;;;;;;;;;;;;;;;;;;;;;;;;;;;;;;;;;;;;;;;;;;;;;;;;;;;;;;;;;;;;;;;;;;;;;;;;;;;;;;;;;;;;;;;;;;;;;;;;;;;;;;;;;;;;;;;;;;;;;;;;;;;;;;;;;;;596;ICPMS_LA;;;514;;;;;;;;;;;;;;;;;0.0506;;;;;;;;;;;;;;;;0.000918;0.00616;;;;;;;;;;;;;;;;;;;;;;;;;;;;;6.24;PB207_U235  AGE;5.91;PB206_U238  AGE;;;;;5.98174664119998;;;;;;;;;
2018;[21910] LECHMANN A. (2018);samp. 58;;ANATOLIA-IRAN BELT / IRAN / LESSER CAUCASUS;;37.7024;45.9785;37.7024;45.9785;;;OUTCROP;;;SUBAERIAL;VOLCANIC ROCK;TRACHYDACITE;TRACHYTIC, PORPHYRITIC;;;;MIOCENE;;;;;MINERAL / COMPONENT (INCL. GROUNDMASS);ZIRCON;AZ14-058_FB_5;;;PRIMARY;;;;;;;;;;;;;;;;;;;;;;;;;;;;;;;;;;;;;;;;;;;;;;;;;;;;;;;;;;;;;;;;;;;;;;;;;;;;;;;;;;;;;;;;;;;;;;;;;;;;;;;;;;;;;;;;;;;;;;;;;;;;;;;;;;;;;;;;;;;;;;;;;;;;;;;;;;;;;;;;;;;;;;;;;;;;;;;1225;ICPMS_LA;;;1109;;;;;;;;;;;;;;;;;0.0518;;;;;;;;;;;;;;;;0.00083;0.0059;;;;;;;;;;;;;;;;;;;;;;;;;;;;;5.97;PB207_U235  AGE;5.35;PB206_U238  AGE;;;;;5.41691597306167;;;;;;;;;
2018;[21910] LECHMANN A. (2018);samp. 58;;ANATOLIA-IRAN BELT / IRAN / LESSER CAUCASUS;;37.7024;45.9785;37.7024;45.9785;;;OUTCROP;;;SUBAERIAL;VOLCANIC ROCK;TRACHYDACITE;TRACHYTIC, PORPHYRITIC;;;;MIOCENE;;;;;MINERAL / COMPONENT (INCL. GROUNDMASS);ZIRCON;AZ14-058_FB_6;;;PRIMARY;;;;;;;;;;;;;;;;;;;;;;;;;;;;;;;;;;;;;;;;;;;;;;;;;;;;;;;;;;;;;;;;;;;;;;;;;;;;;;;;;;;;;;;;;;;;;;;;;;;;;;;;;;;;;;;;;;;;;;;;;;;;;;;;;;;;;;;;;;;;;;;;;;;;;;;;;;;;;;;;;;;;;;;;;;;;;;;561;ICPMS_LA;;;953;;;;;;;;;;;;;;;;;0.0499;;;;;;;;;;;;;;;;0.00998;0.0682;;;;;;;;;;;;;;;;;;;;;;;;;;;;;66.9;PB207_U235  AGE;64;PB206_U238  AGE;;;;;;;;;;;;;;
2018;[21910] LECHMANN A. (2018);samp. 60;;ANATOLIA-IRAN BELT / IRAN / LESSER CAUCASUS;;38.4151;45.5672;38.4151;45.5672;;;OUTCROP;;;SUBAERIAL;VOLCANIC ROCK;TRACHYDACITE;HYPABYSSAL, HOLOCRYSTALLINE, PORPHYRITIC;;;;MIOCENE;;;;;MINERAL / COMPONENT (INCL. GROUNDMASS);ZIRCON;AZ14-060_F_1;;;PRIMARY;;;;;;;;;;;;;;;;;;;;;;;;;;;;;;;;;;;;;;;;;;;;;;;;;;;;;;;;;;;;;;;;;;;;;;;;;;;;;;;;;;;;;;;;;;;;;;;;;;;;;;;;;;;;;;;;;;;;;;;;;;;;;;;;;;;;;;;;;;;;;;;;;;;;;;;;;;;;;;;;;;;;;;;;;;;;;;;78.9;ICPMS_LA;;;396.2;;;;;;;;;;;;;;;;;0.0503;;;;;;;;;;;;;;;;0.001902;0.0133;;;;;;;;;;;;;;;;;;;;;;;;;;;;;13.5;PB207_U235  AGE;12.25;PB206_U238  AGE;;;;;12.350560895602;;;;;;;;;
2018;[21910] LECHMANN A. (2018);samp. 60;;ANATOLIA-IRAN BELT / IRAN / LESSER CAUCASUS;;38.4151;45.5672;38.4151;45.5672;;;OUTCROP;;;SUBAERIAL;VOLCANIC ROCK;TRACHYDACITE;HYPABYSSAL, HOLOCRYSTALLINE, PORPHYRITIC;;;;MIOCENE;;;;;MINERAL / COMPONENT (INCL. GROUNDMASS);ZIRCON;AZ14-060_F_2;;;PRIMARY;;;;;;;;;;;;;;;;;;;;;;;;;;;;;;;;;;;;;;;;;;;;;;;;;;;;;;;;;;;;;;;;;;;;;;;;;;;;;;;;;;;;;;;;;;;;;;;;;;;;;;;;;;;;;;;;;;;;;;;;;;;;;;;;;;;;;;;;;;;;;;;;;;;;;;;;;;;;;;;;;;;;;;;;;;;;;;;103;ICPMS_LA;;;491;;;;;;;;;;;;;;;;;0.0463;;;;;;;;;;;;;;;;0.002054;0.01304;;;;;;;;;;;;;;;;;;;;;;;;;;;;;13.16;PB207_U235  AGE;13.23;PB206_U238  AGE;;;;;13.328077156848;;;;;;;;;
2018;[21910] LECHMANN A. (2018);samp. 60;;ANATOLIA-IRAN BELT / IRAN / LESSER CAUCASUS;;38.4151;45.5672;38.4151;45.5672;;;OUTCROP;;;SUBAERIAL;VOLCANIC ROCK;TRACHYDACITE;HYPABYSSAL, HOLOCRYSTALLINE, PORPHYRITIC;;;;MIOCENE;;;;;MINERAL / COMPONENT (INCL. GROUNDMASS);ZIRCON;AZ14-060_F_3;;;PRIMARY;;;;;;;;;;;;;;;;;;;;;;;;;;;;;;;;;;;;;;;;;;;;;;;;;;;;;;;;;;;;;;;;;;;;;;;;;;;;;;;;;;;;;;;;;;;;;;;;;;;;;;;;;;;;;;;;;;;;;;;;;;;;;;;;;;;;;;;;;;;;;;;;;;;;;;;;;;;;;;;;;;;;;;;;;;;;;;;84;ICPMS_LA;;;511;;;;;;;;;;;;;;;;;0.0484;;;;;;;;;;;;;;;;0.002035;0.01375;;;;;;;;;;;;;;;;;;;;;;;;;;;;;13.86;PB207_U235  AGE;13.1;PB206_U238  AGE;;;;;13.2075438418277;;;;;;;;;
2018;[21910] LECHMANN A. (2018);samp. 60;;ANATOLIA-IRAN BELT / IRAN / LESSER CAUCASUS;;38.4151;45.5672;38.4151;45.5672;;;OUTCROP;;;SUBAERIAL;VOLCANIC ROCK;TRACHYDACITE;HYPABYSSAL, HOLOCRYSTALLINE, PORPHYRITIC;;;;MIOCENE;;;;;MINERAL / COMPONENT (INCL. GROUNDMASS);ZIRCON;AZ14-060_F_4;;;PRIMARY;;;;;;;;;;;;;;;;;;;;;;;;;;;;;;;;;;;;;;;;;;;;;;;;;;;;;;;;;;;;;;;;;;;;;;;;;;;;;;;;;;;;;;;;;;;;;;;;;;;;;;;;;;;;;;;;;;;;;;;;;;;;;;;;;;;;;;;;;;;;;;;;;;;;;;;;;;;;;;;;;;;;;;;;;;;;;;;48.8;ICPMS_LA;;;210;;;;;;;;;;;;;;;;;0.0566;;;;;;;;;;;;;;;;0.001872;0.0143;;;;;;;;;;;;;;;;;;;;;;;;;;;;;14.5;PB207_U235  AGE;12.06;PB206_U238  AGE;;;;;12.1561691346015;;;;;;;;;
2018;[21910] LECHMANN A. (2018);samp. 60;;ANATOLIA-IRAN BELT / IRAN / LESSER CAUCASUS;;38.4151;45.5672;38.4151;45.5672;;;OUTCROP;;;SUBAERIAL;VOLCANIC ROCK;TRACHYDACITE;HYPABYSSAL, HOLOCRYSTALLINE, PORPHYRITIC;;;;MIOCENE;;;;;MINERAL / COMPONENT (INCL. GROUNDMASS);ZIRCON;AZ14-060_F_5;;;PRIMARY;;;;;;;;;;;;;;;;;;;;;;;;;;;;;;;;;;;;;;;;;;;;;;;;;;;;;;;;;;;;;;;;;;;;;;;;;;;;;;;;;;;;;;;;;;;;;;;;;;;;;;;;;;;;;;;;;;;;;;;;;;;;;;;;;;;;;;;;;;;;;;;;;;;;;;;;;;;;;;;;;;;;;;;;;;;;;;;227;ICPMS_LA;;;703;;;;;;;;;;;;;;;;;0.0474;;;;;;;;;;;;;;;;0.002003;0.01287;;;;;;;;;;;;;;;;;;;;;;;;;;;;;12.99;PB207_U235  AGE;12.9;PB206_U238  AGE;;;;;12.9956179505828;;;;;;;;;
2018;[21910] LECHMANN A. (2018);samp. 60;;ANATOLIA-IRAN BELT / IRAN / LESSER CAUCASUS;;38.4151;45.5672;38.4151;45.5672;;;OUTCROP;;;SUBAERIAL;VOLCANIC ROCK;TRACHYDACITE;HYPABYSSAL, HOLOCRYSTALLINE, PORPHYRITIC;;;;MIOCENE;;;;;MINERAL / COMPONENT (INCL. GROUNDMASS);ZIRCON;AZ14-060_F_6;;;PRIMARY;;;;;;;;;;;;;;;;;;;;;;;;;;;;;;;;;;;;;;;;;;;;;;;;;;;;;;;;;;;;;;;;;;;;;;;;;;;;;;;;;;;;;;;;;;;;;;;;;;;;;;;;;;;;;;;;;;;;;;;;;;;;;;;;;;;;;;;;;;;;;;;;;;;;;;;;;;;;;;;;;;;;;;;;;;;;;;;29.98;ICPMS_LA;;;236;;;;;;;;;;;;;;;;;0.0494;;;;;;;;;;;;;;;;0.001878;0.0124;;;;;;;;;;;;;;;;;;;;;;;;;;;;;12.5;PB207_U235  AGE;12.1;PB206_U238  AGE;;;;;12.1988917684878;;;;;;;;;
2018;[21910] LECHMANN A. (2018);samp. 60;;ANATOLIA-IRAN BELT / IRAN / LESSER CAUCASUS;;38.4151;45.5672;38.4151;45.5672;;;OUTCROP;;;SUBAERIAL;VOLCANIC ROCK;TRACHYDACITE;HYPABYSSAL, HOLOCRYSTALLINE, PORPHYRITIC;;;;MIOCENE;;;;;MINERAL / COMPONENT (INCL. GROUNDMASS);ZIRCON;AZ14-060_F_7;;;PRIMARY;;;;;;;;;;;;;;;;;;;;;;;;;;;;;;;;;;;;;;;;;;;;;;;;;;;;;;;;;;;;;;;;;;;;;;;;;;;;;;;;;;;;;;;;;;;;;;;;;;;;;;;;;;;;;;;;;;;;;;;;;;;;;;;;;;;;;;;;;;;;;;;;;;;;;;;;;;;;;;;;;;;;;;;;;;;;;;;48.8;ICPMS_LA;;;255;;;;;;;;;;;;;;;;;0.0463;;;;;;;;;;;;;;;;0.001855;0.0123;;;;;;;;;;;;;;;;;;;;;;;;;;;;;12.4;PB207_U235  AGE;11.94;PB206_U238  AGE;;;;;12.0483660230241;;;;;;;;;
2018;[21910] LECHMANN A. (2018);samp. 60;;ANATOLIA-IRAN BELT / IRAN / LESSER CAUCASUS;;38.4151;45.5672;38.4151;45.5672;;;OUTCROP;;;SUBAERIAL;VOLCANIC ROCK;TRACHYDACITE;HYPABYSSAL, HOLOCRYSTALLINE, PORPHYRITIC;;;;MIOCENE;;;;;MINERAL / COMPONENT (INCL. GROUNDMASS);ZIRCON;AZ14-060_F_8;;;PRIMARY;;;;;;;;;;;;;;;;;;;;;;;;;;;;;;;;;;;;;;;;;;;;;;;;;;;;;;;;;;;;;;;;;;;;;;;;;;;;;;;;;;;;;;;;;;;;;;;;;;;;;;;;;;;;;;;;;;;;;;;;;;;;;;;;;;;;;;;;;;;;;;;;;;;;;;;;;;;;;;;;;;;;;;;;;;;;;;;132.5;ICPMS_LA;;;568;;;;;;;;;;;;;;;;;0.0452;;;;;;;;;;;;;;;;0.002036;0.01258;;;;;;;;;;;;;;;;;;;;;;;;;;;;;12.69;PB207_U235  AGE;13.11;PB206_U238  AGE;;;;;13.2114033313194;;;;;;;;;
2018;[21910] LECHMANN A. (2018);samp. 60;;ANATOLIA-IRAN BELT / IRAN / LESSER CAUCASUS;;38.4151;45.5672;38.4151;45.5672;;;OUTCROP;;;SUBAERIAL;VOLCANIC ROCK;TRACHYDACITE;HYPABYSSAL, HOLOCRYSTALLINE, PORPHYRITIC;;;;MIOCENE;;;;;MINERAL / COMPONENT (INCL. GROUNDMASS);ZIRCON;AZ14-060_F_9;;;PRIMARY;;;;;;;;;;;;;;;;;;;;;;;;;;;;;;;;;;;;;;;;;;;;;;;;;;;;;;;;;;;;;;;;;;;;;;;;;;;;;;;;;;;;;;;;;;;;;;;;;;;;;;;;;;;;;;;;;;;;;;;;;;;;;;;;;;;;;;;;;;;;;;;;;;;;;;;;;;;;;;;;;;;;;;;;;;;;;;;76.9;ICPMS_LA;;;414;;;;;;;;;;;;;;;;;0.0598;;;;;;;;;;;;;;;;0.0332;0.276;;;;;;;;;;;;;;;;;;;;;;;;;;;;;247.3;PB207_U235  AGE;210.8;PB206_U238  AGE;;;;;210.646509873341;;;;;;;;;
2018;[21910] LECHMANN A. (2018);samp. 60;;ANATOLIA-IRAN BELT / IRAN / LESSER CAUCASUS;;38.4151;45.5672;38.4151;45.5672;;;OUTCROP;;;SUBAERIAL;VOLCANIC ROCK;TRACHYDACITE;HYPABYSSAL, HOLOCRYSTALLINE, PORPHYRITIC;;;;MIOCENE;;;;;MINERAL / COMPONENT (INCL. GROUNDMASS);ZIRCON;AZ14-060_F_10;;;PRIMARY;;;;;;;;;;;;;;;;;;;;;;;;;;;;;;;;;;;;;;;;;;;;;;;;;;;;;;;;;;;;;;;;;;;;;;;;;;;;;;;;;;;;;;;;;;;;;;;;;;;;;;;;;;;;;;;;;;;;;;;;;;;;;;;;;;;;;;;;;;;;;;;;;;;;;;;;;;;;;;;;;;;;;;;;;;;;;;;37.9;ICPMS_LA;;;399;;;;;;;;;;;;;;;;;0.049;;;;;;;;;;;;;;;;0.001859;0.01245;;;;;;;;;;;;;;;;;;;;;;;;;;;;;12.56;PB207_U235  AGE;11.97;PB206_U238  AGE;;;;;12.0778183252457;;;;;;;;;
2018;[21910] LECHMANN A. (2018);samp. 60;;ANATOLIA-IRAN BELT / IRAN / LESSER CAUCASUS;;38.4151;45.5672;38.4151;45.5672;;;OUTCROP;;;SUBAERIAL;VOLCANIC ROCK;TRACHYDACITE;HYPABYSSAL, HOLOCRYSTALLINE, PORPHYRITIC;;;;MIOCENE;;;;;MINERAL / COMPONENT (INCL. GROUNDMASS);ZIRCON;AZ14-060_F_11;;;PRIMARY;;;;;;;;;;;;;;;;;;;;;;;;;;;;;;;;;;;;;;;;;;;;;;;;;;;;;;;;;;;;;;;;;;;;;;;;;;;;;;;;;;;;;;;;;;;;;;;;;;;;;;;;;;;;;;;;;;;;;;;;;;;;;;;;;;;;;;;;;;;;;;;;;;;;;;;;;;;;;;;;;;;;;;;;;;;;;;;75;ICPMS_LA;;;525;;;;;;;;;;;;;;;;;0.0478;;;;;;;;;;;;;;;;0.001939;0.0127;;;;;;;;;;;;;;;;;;;;;;;;;;;;;12.81;PB207_U235  AGE;12.49;PB206_U238  AGE;;;;;12.5908098574083;;;;;;;;;
2018;[21910] LECHMANN A. (2018);samp. 60;;ANATOLIA-IRAN BELT / IRAN / LESSER CAUCASUS;;38.4151;45.5672;38.4151;45.5672;;;OUTCROP;;;SUBAERIAL;VOLCANIC ROCK;TRACHYDACITE;HYPABYSSAL, HOLOCRYSTALLINE, PORPHYRITIC;;;;MIOCENE;;;;;MINERAL / COMPONENT (INCL. GROUNDMASS);ZIRCON;AZ14-060_F_12;;;PRIMARY;;;;;;;;;;;;;;;;;;;;;;;;;;;;;;;;;;;;;;;;;;;;;;;;;;;;;;;;;;;;;;;;;;;;;;;;;;;;;;;;;;;;;;;;;;;;;;;;;;;;;;;;;;;;;;;;;;;;;;;;;;;;;;;;;;;;;;;;;;;;;;;;;;;;;;;;;;;;;;;;;;;;;;;;;;;;;;;115.6;ICPMS_LA;;;514;;;;;;;;;;;;;;;;;0.0476;;;;;;;;;;;;;;;;0.002019;0.01352;;;;;;;;;;;;;;;;;;;;;;;;;;;;;13.64;PB207_U235  AGE;13;PB206_U238  AGE;;;;;13.102336620642;;;;;;;;;
2018;[21910] LECHMANN A. (2018);samp. 60;;ANATOLIA-IRAN BELT / IRAN / LESSER CAUCASUS;;38.4151;45.5672;38.4151;45.5672;;;OUTCROP;;;SUBAERIAL;VOLCANIC ROCK;TRACHYDACITE;HYPABYSSAL, HOLOCRYSTALLINE, PORPHYRITIC;;;;MIOCENE;;;;;MINERAL / COMPONENT (INCL. GROUNDMASS);ZIRCON;AZ14-060_F_13;;;PRIMARY;;;;;;;;;;;;;;;;;;;;;;;;;;;;;;;;;;;;;;;;;;;;;;;;;;;;;;;;;;;;;;;;;;;;;;;;;;;;;;;;;;;;;;;;;;;;;;;;;;;;;;;;;;;;;;;;;;;;;;;;;;;;;;;;;;;;;;;;;;;;;;;;;;;;;;;;;;;;;;;;;;;;;;;;;;;;;;;35.7;ICPMS_LA;;;226;;;;;;;;;;;;;;;;;0.0498;;;;;;;;;;;;;;;;0.001815;0.0126;;;;;;;;;;;;;;;;;;;;;;;;;;;;;12.7;PB207_U235  AGE;11.69;PB206_U238  AGE;;;;;11.7920241108121;;;;;;;;;
2018;[21910] LECHMANN A. (2018);samp. 60;;ANATOLIA-IRAN BELT / IRAN / LESSER CAUCASUS;;38.4151;45.5672;38.4151;45.5672;;;OUTCROP;;;SUBAERIAL;VOLCANIC ROCK;TRACHYDACITE;HYPABYSSAL, HOLOCRYSTALLINE, PORPHYRITIC;;;;MIOCENE;;;;;MINERAL / COMPONENT (INCL. GROUNDMASS);ZIRCON;AZ14-060_F_14;;;PRIMARY;;;;;;;;;;;;;;;;;;;;;;;;;;;;;;;;;;;;;;;;;;;;;;;;;;;;;;;;;;;;;;;;;;;;;;;;;;;;;;;;;;;;;;;;;;;;;;;;;;;;;;;;;;;;;;;;;;;;;;;;;;;;;;;;;;;;;;;;;;;;;;;;;;;;;;;;;;;;;;;;;;;;;;;;;;;;;;;115;ICPMS_LA;;;525;;;;;;;;;;;;;;;;;0.0492;;;;;;;;;;;;;;;;0.002005;0.01342;;;;;;;;;;;;;;;;;;;;;;;;;;;;;13.53;PB207_U235  AGE;12.91;PB206_U238  AGE;;;;;13.012545182721;;;;;;;;;
2018;[21910] LECHMANN A. (2018);samp. 60;;ANATOLIA-IRAN BELT / IRAN / LESSER CAUCASUS;;38.4151;45.5672;38.4151;45.5672;;;OUTCROP;;;SUBAERIAL;VOLCANIC ROCK;TRACHYDACITE;HYPABYSSAL, HOLOCRYSTALLINE, PORPHYRITIC;;;;MIOCENE;;;;;MINERAL / COMPONENT (INCL. GROUNDMASS);ZIRCON;AZ14-060_F_15;;;PRIMARY;;;;;;;;;;;;;;;;;;;;;;;;;;;;;;;;;;;;;;;;;;;;;;;;;;;;;;;;;;;;;;;;;;;;;;;;;;;;;;;;;;;;;;;;;;;;;;;;;;;;;;;;;;;;;;;;;;;;;;;;;;;;;;;;;;;;;;;;;;;;;;;;;;;;;;;;;;;;;;;;;;;;;;;;;;;;;;;96;ICPMS_LA;;;440;;;;;;;;;;;;;;;;;0.0821;;;;;;;;;;;;;;;;0.002036;0.0226;;;;;;;;;;;;;;;;;;;;;;;;;;;;;22.7;PB207_U235  AGE;13.11;PB206_U238  AGE;;;;;13.2119231866634;;;;;;;;;
2018;[21910] LECHMANN A. (2018);samp. 60;;ANATOLIA-IRAN BELT / IRAN / LESSER CAUCASUS;;38.4151;45.5672;38.4151;45.5672;;;OUTCROP;;;SUBAERIAL;VOLCANIC ROCK;TRACHYDACITE;HYPABYSSAL, HOLOCRYSTALLINE, PORPHYRITIC;;;;MIOCENE;;;;;MINERAL / COMPONENT (INCL. GROUNDMASS);ZIRCON;AZ14-060_F_16;;;PRIMARY;;;;;;;;;;;;;;;;;;;;;;;;;;;;;;;;;;;;;;;;;;;;;;;;;;;;;;;;;;;;;;;;;;;;;;;;;;;;;;;;;;;;;;;;;;;;;;;;;;;;;;;;;;;;;;;;;;;;;;;;;;;;;;;;;;;;;;;;;;;;;;;;;;;;;;;;;;;;;;;;;;;;;;;;;;;;;;;71;ICPMS_LA;;;320.5;;;;;;;;;;;;;;;;;0.0448;;;;;;;;;;;;;;;;0.001915;0.0121;;;;;;;;;;;;;;;;;;;;;;;;;;;;;12.2;PB207_U235  AGE;12.33;PB206_U238  AGE;;;;;12.4332113445226;;;;;;;;;
2018;[21910] LECHMANN A. (2018);samp. 60;;ANATOLIA-IRAN BELT / IRAN / LESSER CAUCASUS;;38.4151;45.5672;38.4151;45.5672;;;OUTCROP;;;SUBAERIAL;VOLCANIC ROCK;TRACHYDACITE;HYPABYSSAL, HOLOCRYSTALLINE, PORPHYRITIC;;;;MIOCENE;;;;;MINERAL / COMPONENT (INCL. GROUNDMASS);ZIRCON;AZ14-060_F_17;;;PRIMARY;;;;;;;;;;;;;;;;;;;;;;;;;;;;;;;;;;;;;;;;;;;;;;;;;;;;;;;;;;;;;;;;;;;;;;;;;;;;;;;;;;;;;;;;;;;;;;;;;;;;;;;;;;;;;;;;;;;;;;;;;;;;;;;;;;;;;;;;;;;;;;;;;;;;;;;;;;;;;;;;;;;;;;;;;;;;;;;46;ICPMS_LA;;;212.4;;;;;;;;;;;;;;;;;0.0511;;;;;;;;;;;;;;;;0.001859;0.013;;;;;;;;;;;;;;;;;;;;;;;;;;;;;13.1;PB207_U235  AGE;11.98;PB206_U238  AGE;;;;;12.0732216993498;;;;;;;;;
2018;[21910] LECHMANN A. (2018);samp. 60;;ANATOLIA-IRAN BELT / IRAN / LESSER CAUCASUS;;38.4151;45.5672;38.4151;45.5672;;;OUTCROP;;;SUBAERIAL;VOLCANIC ROCK;TRACHYDACITE;HYPABYSSAL, HOLOCRYSTALLINE, PORPHYRITIC;;;;MIOCENE;;;;;MINERAL / COMPONENT (INCL. GROUNDMASS);ZIRCON;AZ14-060_F_18;;;PRIMARY;;;;;;;;;;;;;;;;;;;;;;;;;;;;;;;;;;;;;;;;;;;;;;;;;;;;;;;;;;;;;;;;;;;;;;;;;;;;;;;;;;;;;;;;;;;;;;;;;;;;;;;;;;;;;;;;;;;;;;;;;;;;;;;;;;;;;;;;;;;;;;;;;;;;;;;;;;;;;;;;;;;;;;;;;;;;;;;312.3;ICPMS_LA;;;859;;;;;;;;;;;;;;;;;0.0466;;;;;;;;;;;;;;;;0.001917;0.01228;;;;;;;;;;;;;;;;;;;;;;;;;;;;;12.39;PB207_U235  AGE;12.34;PB206_U238  AGE;;;;;12.4407130967308;;;;;;;;;