Year;CITATION;SAMPLE NAME;UNIQUE_ID;LOCATION;LOCATION COMMENT;LATITUDE (MIN.);LONGITUDE (MIN.);LATITUDE (MAX.);LONGITUDE (MAX.);ELEVATION (MIN.);ELEVATION (MAX.);SAMPLING TECHNIQUE;DRILLING DEPTH (MIN.);DRILLING DEPTH (MAX.);LAND/SEA (SAMPLING);ROCK TYPE;ROCK NAME;ROCK TEXTURE;SAMPLE COMMENT;AGE (MIN.);AGE (MAX.);GEOLOGICAL AGE;GEOLOGICAL AGE PREFIX;ERUPTION YEAR;ALTERATION;ALTERATION TYPE;TYPE OF MATERIAL;MINERAL / COMPONENT;SPOT (MINERAL);CRYSTAL;RIM / CORE (MINERAL GRAINS);PRIMARY/SECONDARY;INCLUSION TYPE;SPOT (INCLUSION);MINERAL (INCLUSION);RIM / CORE (INCLUSION);HOSTMINERAL (INCLUSION);HEATING;HEATING TEMPERATURE (?C);SIO2(WT%);TIO2(WT%);ZRO2(WT%);B2O3(WT%);AL2O3(WT%);CR2O3(WT%);LA2O3(WT%);CE2O3(WT%);Y2O3(WT%);V2O3(WT%);NB2O3(WT%);TA2O5(WT%);WO3(WT%);FE2O3T(WT%);FE2O3(WT%);FEOT(WT%);FEO(WT%);CAO(WT%);MGO(WT%);MNO(WT%);BAO(WT%);SRO(WT%);NIO(WT%);ZNO(WT%);CS2O(WT%);RB2O(WT%);K2O(WT%);;;;NA2O(WT%);P2O5(WT%);H2O(WT%);;;;H2OP(WT%);H2OM(WT%);CO2(WT%);C(WT%);F(WT%);CL(WT%);SO2(WT%);SO3(WT%);S(WT%);LOI(WT%);AL(WT%);TI(WT%);FE(WT%);MG(WT%);CA(WT%);K(WT%);NA(WT%);LI(PPM);BE(PPM);B(PPM);C(PPM);F(PPM);NA(PPM);MG(PPM);AL(PPM);P(PPM);S(PPM);CL(PPM);AR40(AT/G);AR40(CCMSTP/G);AR40(MOL/G);AR40(PPB);K(PPM);CA(PPM);SC(PPM);;;;TI(PPM);;;;V(PPM);CR(PPM);MN(PPM);FE(PPM);CO(PPM);NI(PPM);CU(PPM);ZN(PPM);GA(PPM);GE(PPM);AS(PPM);SE(PPM);BR(PPM);RB(PPM): altern. values or methods;;;;SR(PPM): altern. values or methods;;;;Y(PPM): altern. values or methods;;;;ZR(PPM): altern. values or methods;;;;NB(PPM): altern. values or methods;;;;MO(PPM): altern. values or methods;;;;AG(PPM);CD(PPM);IN(PPM);SN(PPM);SB(PPM);TE(PPM);CS(PPM);BA(PPM): altern. values or methods;;;;LA(PPM): altern. values or methods;;;;CE(PPM): altern. values or methods;;;;PR(PPM);ND(PPM): altern. values or methods;;;;SM(PPM): altern. values or methods;;;;EU(PPM);GD(PPM);TB(PPM);DY(PPM);HO(PPM);ER(PPM);TM(PPM);YB(PPM);LU(PPM);HF(PPM);TA(PPM);W(PPM);RE(PPM);AU(PPM);AU(PPB);HG(PPM);HG(PPB);TL(PPM);PB(PPM): altern. values or methods;;;;PB206(PPM);BI(PPM);TH(PPM): altern. values or methods;;;;U(PPM);ND143_ND144;ND143_ND144_INI;EPSILON_ND;EPSILON_ND_INI;SM147_ND144;SR87_SR86;SR87_SR86_INI;EPSILON_SR;EPSILON_SR_INI;RB87_SR86;PB206_PB204;PB206_PB204_INI;PB206_PB207;PB206_PB208;PB207_PB204;PB207_PB204_INI;PB207_PB206;PB208_PB204;PB208_PB204_INI;PB208_PB206;HF176_HF177;HF176_HF177_INI;EPSILON_HF_INI;LU176_HF177;YB176_HF177;AR36_AR39;AR36_AR40;AR37_AR39;AR38_AR39;AR39_AR40;AR40_AR36;AR40_AR39;PB206_U238;PB207_U235;PB208_TH232;TH232_PB204;TH232_U238;U235_PB204;U238_PB204;U238_PB206;D7LI(VS LSVEC);D18O(PER MIL);D18O(VS SMOW);D18O(VS VSMOW);D56FE(VS IRMM-014);D57FE(VS IRMM-014);DD(VS SMOW);ALBITE(MOL%);ANORTHITE(MOL%);CA OLIVINE(MOL%);ENSTATITE(MOL%);FAYALITE(MOL%);FORSTERITE(MOL%);FERROSILITE(MOL%);ORTHOCLASE(MOL%);TEPHROITE(MOL%);ULVOSPINEL(MOL%);WOLLASTONITE(MOL%);AGE(KA): altern. values or methods;;;;AGE(MA): altern. values or methods;;;;;;;;AGE_PB207_PB206(MA);AGE_PB207_U235(MA);AGE_PB206_U238(MA): altern. values or methods;;;;;;AGE_PB208_TH232(MA);
2011;[15549] ANDREEVA I. A. (2011);samp. TRACHYDACITE;;CENTRAL ASIAN FOLDBELT - PALEOZOIC / MONGOLIA - PALEOZOIC / CENTRAL MONGOLIA / DZARTA-KUDUK PALEOVOLCANO;;48;110;48;110;;;OUTCROP;;;SUBAERIAL;VOLCANIC ROCK;TRACHYDACITE;PORPHYRITIC, TRACHYTOID GROUNDMASS;;211000000;211000000;TRIASSIC;;;;;INCLUSION;;;;;;GLASS INCLUSION;;;;ANORTHOCLASE;FALSE;;68.15;0.34;;;13.72;;;;;;;;;;;4.59;;0.22;0.03;0.14;;;;;;;5.06;EMP (EPMA);;;6.86;;0.07;SIMS;;;;;;;0.42;0.14;;;;;;;;;;;;308;17.5;27.5;;;;;;;;;;;;;;;;;;;;;;;11;;;;;;;;;;;;;275;SIMS;;;3.6;SIMS;;;195;SIMS;;;2658;SIMS;;;146;SIMS;;;;;;;;;;;;;;14.9;SIMS;;;184;SIMS;;;411;SIMS;;;;173;SIMS;;;34.8;SIMS;;;1;33.7;;34.2;;24.2;;30.4;;53.1;9.8;;;;;;;;66.3;SIMS;;;;;34.3;SIMS;;;9;;;;;;;;;;;;;;;;;;;;;;;;;;;;;;;;;;;;;;;;;;;;;;;;;;;;;;;;;;;;;;;;;;;;;;;;;;;;;;;;
2011;[15549] ANDREEVA I. A. (2011);samp. TRACHYDACITE;;CENTRAL ASIAN FOLDBELT - PALEOZOIC / MONGOLIA - PALEOZOIC / CENTRAL MONGOLIA / DZARTA-KUDUK PALEOVOLCANO;;48;110;48;110;;;OUTCROP;;;SUBAERIAL;VOLCANIC ROCK;TRACHYDACITE;PORPHYRITIC, TRACHYTOID GROUNDMASS;;211000000;211000000;TRIASSIC;;;;;INCLUSION;;;;;;GLASS INCLUSION;;;;ANORTHOCLASE;FALSE;;68;0.46;;;12.93;;;;;;;;;;;5.66;;0.35;0.03;0.15;;;;;;;5.06;EMP (EPMA);;;6.36;;0.08;SIMS;;;;;;;0.51;0.12;;;;;;;;;;;;320;12.2;20.3;;;;;;;;;;;;;;;;;;;;;;;9.4;;;;;;;;;;;;;189;SIMS;;;1.5;SIMS;;;168;SIMS;;;2231;SIMS;;;103;SIMS;;;;;;;;;;;;;;4.2;SIMS;;;139;SIMS;;;317;SIMS;;;;140;SIMS;;;28;SIMS;;;0.5;24.2;;27.3;;19.6;;23.2;;47.9;7.3;;;;;;;;34.4;SIMS;;;;;29;SIMS;;;7.2;;;;;;;;;;;;;;;;;;;;;;;;;;;;;;;;;;;;;;;;;;;;;;;;;;;;;;;;;;;;;;;;;;;;;;;;;;;;;;;;
2011;[15549] ANDREEVA I. A. (2011);samp. TRACHYDACITE;;CENTRAL ASIAN FOLDBELT - PALEOZOIC / MONGOLIA - PALEOZOIC / CENTRAL MONGOLIA / DZARTA-KUDUK PALEOVOLCANO;;48;110;48;110;;;OUTCROP;;;SUBAERIAL;VOLCANIC ROCK;TRACHYDACITE;PORPHYRITIC, TRACHYTOID GROUNDMASS;;211000000;211000000;TRIASSIC;;;;;INCLUSION;;;;;;GLASS INCLUSION;;;;ANORTHOCLASE;FALSE;;68.26;0.46;;;12.24;;;;;;;;;;;6.03;;0.47;0.02;0.17;;;;;;;5.07;EMP (EPMA);;;6.42;;0.05;SIMS;;;;;;;0.49;0.09;;;;;;;;;;;;421;17.6;25.6;;;;;;;;;;;;;;;;;;;;;;;7.6;;;;;;;;;;;;;221;SIMS;;;2;SIMS;;;183;SIMS;;;1949;SIMS;;;124;SIMS;;;;;;;;;;;;;;5.9;SIMS;;;164;SIMS;;;367;SIMS;;;;160;SIMS;;;32.8;SIMS;;;0.8;31;;29.9;;22.4;;27.1;;40.7;8.6;;;;;;;;48.4;SIMS;;;;;28.8;SIMS;;;7.4;;;;;;;;;;;;;;;;;;;;;;;;;;;;;;;;;;;;;;;;;;;;;;;;;;;;;;;;;;;;;;;;;;;;;;;;;;;;;;;;
2011;[15549] ANDREEVA I. A. (2011);samp. TRACHYDACITE;;CENTRAL ASIAN FOLDBELT - PALEOZOIC / MONGOLIA - PALEOZOIC / CENTRAL MONGOLIA / DZARTA-KUDUK PALEOVOLCANO;;48;110;48;110;;;OUTCROP;;;SUBAERIAL;VOLCANIC ROCK;TRACHYDACITE;PORPHYRITIC, TRACHYTOID GROUNDMASS;;211000000;211000000;TRIASSIC;;;;;INCLUSION;;;;;;GLASS INCLUSION;;;;ANORTHOCLASE;FALSE;;68.3;0.43;;;12.81;;;;;;;;;;;5.65;;0.53;0.02;0.13;;;;;;;4.94;EMP (EPMA);;;6.27;;0.04;SIMS;;;;;;;0.15;0.09;;;;;;;;;;;;376;12.7;19.4;;;;;;;;;;;;;;;;;;;;;;;10.4;;;;;;;;;;;;;179;SIMS;;;2.7;SIMS;;;121;SIMS;;;1746;SIMS;;;81;SIMS;;;;;;;;;;;;;;8;SIMS;;;117;SIMS;;;267;SIMS;;;;115;SIMS;;;23.2;SIMS;;;0.8;19;;21.3;;15.5;;19.9;;38;6.1;;;;;;;;37.3;SIMS;;;;;22.1;SIMS;;;5.2;;;;;;;;;;;;;;;;;;;;;;;;;;;;;;;;;;;;;;;;;;;;;;;;;;;;;;;;;;;;;;;;;;;;;;;;;;;;;;;;
2011;[15549] ANDREEVA I. A. (2011);samp. TRACHYDACITE;;CENTRAL ASIAN FOLDBELT - PALEOZOIC / MONGOLIA - PALEOZOIC / CENTRAL MONGOLIA / DZARTA-KUDUK PALEOVOLCANO;;48;110;48;110;;;OUTCROP;;;SUBAERIAL;VOLCANIC ROCK;TRACHYDACITE;PORPHYRITIC, TRACHYTOID GROUNDMASS;;211000000;211000000;TRIASSIC;;;;;INCLUSION;;;;;;GLASS INCLUSION;;;;ANORTHOCLASE;FALSE;;68.71;0.58;;;11.91;;;;;;;;;;;6.79;;0.92;0.05;0.19;;;;;;;4.91;EMP (EPMA);;;4.53;;0.05;SIMS;;;;;;;0.45;0.14;;;;;;;;;;;;593;20.3;28.7;;;;;;;;;;;;;;;;;;;;;;;10.2;;;;;;;;;;;;;187;SIMS;;;5.4;SIMS;;;299;SIMS;;;4198;SIMS;;;193;SIMS;;;;;;;;;;;;;;13.9;SIMS;;;256;SIMS;;;569;SIMS;;;;253;SIMS;;;53.5;SIMS;;;1.8;46.7;;48.8;;34.1;;44.1;;79.4;13.1;;;;;;;;77.6;SIMS;;;;;46.9;SIMS;;;11.4;;;;;;;;;;;;;;;;;;;;;;;;;;;;;;;;;;;;;;;;;;;;;;;;;;;;;;;;;;;;;;;;;;;;;;;;;;;;;;;;
2011;[15549] ANDREEVA I. A. (2011);samp. TRACHYDACITE;;CENTRAL ASIAN FOLDBELT - PALEOZOIC / MONGOLIA - PALEOZOIC / CENTRAL MONGOLIA / DZARTA-KUDUK PALEOVOLCANO;;48;110;48;110;;;OUTCROP;;;SUBAERIAL;VOLCANIC ROCK;TRACHYDACITE;PORPHYRITIC, TRACHYTOID GROUNDMASS;;211000000;211000000;TRIASSIC;;;;;INCLUSION;;;;;;GLASS INCLUSION;;;;ANORTHOCLASE;FALSE;;69.45;0.52;;;11.81;;;;;;;;;;;5.78;;0.54;0.03;0.16;;;;;;;4.82;EMP (EPMA);;;5.72;;0.05;SIMS;;;;;;;0.17;0.07;;;;;;;;;;;;216;13.2;21;;;;;;;;;;;;;;;;;;;;;;;10.4;;;;;;;;;;;;;234;SIMS;;;7.5;SIMS;;;210;SIMS;;;2950;SIMS;;;137;SIMS;;;;;;;;;;;;;;10.2;SIMS;;;180;SIMS;;;421;SIMS;;;;180;SIMS;;;39.3;SIMS;;;1.3;35.2;;35.2;;26.3;;33.9;;59.9;9.8;;;;;;;;47.3;SIMS;;;;;38.3;SIMS;;;9.1;;;;;;;;;;;;;;;;;;;;;;;;;;;;;;;;;;;;;;;;;;;;;;;;;;;;;;;;;;;;;;;;;;;;;;;;;;;;;;;;
2012;[15790] TEMIZEL I. (2012);samp. CT-2;;ANATOLIA-IRAN BELT / TURKEY / PONTIDES;CATAL TEPE DOME, ULUBEY (ORDU) AREA;40.87;37.76;40.87;37.76;;;OUTCROP;;;SUBAERIAL;VOLCANIC ROCK;TRACHYDACITE;;;;;CENOZOIC;;;;;WHOLE ROCK;;;;;;;;;;;;;68.18;0.28;;;16.5;;;;;;;;;1.69;;;;2.3;0.26;0.01;;;;;;;4.71;ICPAES;;;3.36;0.14;;;;;;;;;;;;;;2.3;;;;;;;;;;;;;;;;;;;;;;;;;;;;;;;;;;;;;2.8;2.4;;;;;;;;136.6;ICPMS;;;567.6;ICPMS;;;19.3;ICPMS;;;111;ICPMS;;;5.4;ICPMS;;;;;;;;;;;;;;856.8;ICPMS;;;38.7;ICPMS;;;45.1;ICPMS;;;6.73;24.2;ICPMS;;;4.3;ICPMS;;;0.96;3.9;0.54;2.92;0.59;1.59;0.24;1.64;0.28;3.3;0.4;;;;;;;;1.7;ICPMS;;;;;7.2;ICPMS;;;;;;;;;;;;;;;;;;;;;;;;;;;;;;;;;;;;;;;;;;;;;;;;;;;;;;;;;;;;;;;;;;;;;;;;;;;;;;;;;;;
2012;[15790] TEMIZEL I. (2012);samp. CT-3;;ANATOLIA-IRAN BELT / TURKEY / PONTIDES;CATAL TEPE DOME, ULUBEY (ORDU) AREA;40.87;37.76;40.87;37.76;;;OUTCROP;;;SUBAERIAL;VOLCANIC ROCK;TRACHYDACITE;;;;;CENOZOIC;;;;;WHOLE ROCK;;;;;;;;;;;;;68.43;0.27;;;16.05;;;;;;;;;2.83;;;;1.78;0.11;0.05;;;;;;;5.25;ICPAES;;;3.13;0.15;;;;;;;;;;;;;;1.7;;;;;;;;;;;;;;;;;;;;;;;;;;;;;;;;;;;;;3.7;3.7;;;;;;;;143.7;ICPMS;;;471.9;ICPMS;;;18.7;ICPMS;;;111.5;ICPMS;;;5.6;ICPMS;;;;;;;;;;;;;;914.8;ICPMS;;;28.5;ICPMS;;;48;ICPMS;;;5.34;18.7;ICPMS;;;3.3;ICPMS;;;0.88;3.12;0.48;2.8;0.55;1.58;0.23;1.73;0.26;2.8;0.4;;;;;;;;1.5;ICPMS;;;;;8.2;ICPMS;;;;;;;;;;;;;;;;;;;;;;;;;;;;;;;;;;;;;;;;;;;;;;;;;;;;;;;;;;;;;;;;;;;;;;;;;;;;;;;;;;;
2012;[15790] TEMIZEL I. (2012);samp. CT-5;;ANATOLIA-IRAN BELT / TURKEY / PONTIDES;CATAL TEPE DOME, ULUBEY (ORDU) AREA;40.87;37.76;40.87;37.76;;;OUTCROP;;;SUBAERIAL;VOLCANIC ROCK;TRACHYDACITE;;;;;CENOZOIC;;;;;WHOLE ROCK;;;;;;;;;;;;;66.93;0.26;;;15.85;;;;;;;;;3.24;;;;1.96;0.37;0.03;;;;;;;5.22;ICPAES;;;3.08;0.11;;;;;;;;;;;;;;2.7;;;;;;;;;;;;;;;;;;;;;;;;;;;;;;;;;;;;;4.5;4;;;;;;;;140.5;ICPMS;;;490.8;ICPMS;;;20.7;ICPMS;;;108.6;ICPMS;;;5;ICPMS;;;;;;;;;;;;;;856.2;ICPMS;;;44.6;ICPMS;;;54.9;ICPMS;;;7.69;26.9;ICPMS;;;4.8;ICPMS;;;1.16;4.04;0.62;3.29;0.64;1.72;0.27;1.84;0.26;3.2;0.4;;;;;;;;1.7;ICPMS;;;;;7.9;ICPMS;;;;;;;;;;;;;;;;;;;;;;;;;;;;;;;;;;;;;;;;;;;;;;;;;;;;;;;;;;;;;;;;;;;;;;;;;;;;;;;;;;;
2012;[15790] TEMIZEL I. (2012);samp. EC-1;;ANATOLIA-IRAN BELT / TURKEY / PONTIDES;ELEKCIOGLU TEPE DOME, ULUBEY (ORDU) AREA;40.87;37.76;40.87;37.76;;;OUTCROP;;;SUBAERIAL;VOLCANIC ROCK;TRACHYDACITE;;;;;CENOZOIC;;;;;WHOLE ROCK;;;;;;;;;;;;;67.3;0.26;;;15.59;;;;;;;;;2.69;;;;2.45;0.76;0.03;;;;;;;4.85;ICPAES;;;3.22;0.12;;;;;;;;;;;;;;2.5;;;;;;;;;;;;;;;;;;;;;;;;;;;;;;;;;;;;;4.2;1.9;;;;;;;;142;ICPMS;;;555.7;ICPMS;;;16.3;ICPMS;;;111.5;ICPMS;;;5.5;ICPMS;;;;;;;;;;;;;;893.8;ICPMS;;;27.9;ICPMS;;;46.4;ICPMS;;;5.26;18.5;ICPMS;;;3.4;ICPMS;;;0.87;3.04;0.45;2.3;0.5;1.46;0.22;1.69;0.25;3.3;0.4;;;;;;;;1.3;ICPMS;;;;;8.2;ICPMS;;;;;;;;;;;;;;;;;;;;;;;;;;;;;;;;;;;;;;;;;;;;;;;;;;;;;;;;;;;;;;;;;;;;;;;;;;;;;;;;;;;
2012;[15790] TEMIZEL I. (2012);samp. EC-2;;ANATOLIA-IRAN BELT / TURKEY / PONTIDES;ELEKCIOGLU TEPE DOME, ULUBEY (ORDU) AREA;40.87;37.76;40.87;37.76;;;OUTCROP;;;SUBAERIAL;VOLCANIC ROCK;TRACHYDACITE;;;;;CENOZOIC;;;;;WHOLE ROCK;;;;;;;;;;;;;67.98;0.26;;;16.01;;;;;;;;;2.53;;;;2.37;0.36;0.03;;;;;;;4.81;ICPAES;;;3.26;0.13;;;;;;;;;;;;;;2;;;;;;;;;;;;;;;;;;;;;;;;;;;;;;;;;;;;;3.6;1.8;;;;;;;;136.9;ICPMS;;;551.5;ICPMS;;;15.3;ICPMS;;;113.6;ICPMS;;;5.5;ICPMS;;;;;;;;;;;;;;888.1;ICPMS;;;27.2;ICPMS;;;47.3;ICPMS;;;5.13;18.6;ICPMS;;;3.4;ICPMS;;;0.78;2.81;0.38;2.42;0.48;1.28;0.22;1.44;0.25;2.7;0.4;;;;;;;;1.3;ICPMS;;;;;7.3;ICPMS;;;;;;;;;;;;;;;;;;;;;;;;;;;;;;;;;;;;;;;;;;;;;;;;;;;;;;;;;;;;;;;;;;;;;;;;;;;;;;;;;;;
2012;[15790] TEMIZEL I. (2012);samp. EC-5;;ANATOLIA-IRAN BELT / TURKEY / PONTIDES;ELEKCIOGLU TEPE DOME, ULUBEY (ORDU) AREA;40.87;37.76;40.87;37.76;;;OUTCROP;;;SUBAERIAL;VOLCANIC ROCK;TRACHYDACITE;;;;;CENOZOIC;;;;;WHOLE ROCK;;;;;;;;;;;;;66.85;0.25;;;15.52;;;;;;;;;2.66;;;;2.41;0.89;0.02;;;;;;;5.06;ICPAES;;;3.18;0.11;;;;;;;;;;;;;;2.8;;;;;;;;;;;;;;;;;;;;;;;;;;;;;;;;;;;;;4.2;2.2;;;;;;;;141.3;ICPMS;;;508.6;ICPMS;;;14.6;ICPMS;;;107.6;ICPMS;;;5.3;ICPMS;;;;;;;;;;;;;;874;ICPMS;;;25.1;ICPMS;;;45.1;ICPMS;;;4.74;17.1;ICPMS;;;3.1;ICPMS;;;0.79;2.51;0.41;2.25;0.46;1.26;0.19;1.54;0.25;3;0.4;;;;;;;;1.1;ICPMS;;;;;7.5;ICPMS;;;;;;;;;;;;;;;;;;;;;;;;;;;;;;;;;;;;;;;;;;;;;;;;;;;;;;;;;;;;;;;;;;;;;;;;;;;;;;;;;;;
2012;[15790] TEMIZEL I. (2012);samp. EC-8;;ANATOLIA-IRAN BELT / TURKEY / PONTIDES;ELEKCIOGLU TEPE DOME, ULUBEY (ORDU) AREA;40.87;37.76;40.87;37.76;;;OUTCROP;;;SUBAERIAL;VOLCANIC ROCK;TRACHYDACITE;;;;;CENOZOIC;;;;;WHOLE ROCK;;;;;;;;;;;;;67.25;0.26;;;15.86;;;;;;;;;2.79;;;;2.72;0.79;0.03;;;;;;;4.77;ICPAES;;;3.26;0.13;;;;;;;;;;;;;;1.9;;;;;;;;;;;;;;;;;;;;;;;;;;;;;;;;;;;;;4.7;2.2;;;;;;;;142.2;ICPMS;;;571.3;ICPMS;;;14.8;ICPMS;;;112.5;ICPMS;;;5.5;ICPMS;;;;;;;;;;;;;;881.3;ICPMS;;;26;ICPMS;;;46.8;ICPMS;;;4.85;17.5;ICPMS;;;3.1;ICPMS;;;0.72;2.67;0.39;2.21;0.47;1.34;0.22;1.56;0.27;3.3;0.4;;;;;;;;1.3;ICPMS;;;;;7.6;ICPMS;;;;;;;;;;;;;;;;;;;;;;;;;;;;;;;;;;;;;;;;;;;;;;;;;;;;;;;;;;;;;;;;;;;;;;;;;;;;;;;;;;;
2012;[15790] TEMIZEL I. (2012);samp. EC-10;;ANATOLIA-IRAN BELT / TURKEY / PONTIDES;ELEKCIOGLU TEPE DOME, ULUBEY (ORDU) AREA;40.87;37.76;40.87;37.76;;;OUTCROP;;;SUBAERIAL;VOLCANIC ROCK;TRACHYDACITE;;;;;CENOZOIC;;;;;WHOLE ROCK;;;;;;;;;;;;;68.91;0.26;;;15.77;;;;;;;;;2.26;;;;2.47;0.37;0.02;;;;;;;4.92;ICPAES;;;3.24;0.12;;;;;;;;;;;;;;1.4;;;;;;;;;;;;;;;;;;;;;;;;;;;;;;;;;;;;;3.1;2.2;;;;;;;;142.4;ICPMS;;;569.6;ICPMS;;;14.4;ICPMS;;;111.3;ICPMS;;;5.5;ICPMS;;;;;;;;;;;;;;876.3;ICPMS;;;25.4;ICPMS;;;46.6;ICPMS;;;4.81;17.2;ICPMS;;;3.2;ICPMS;;;0.78;2.73;0.37;2.36;0.44;1.32;0.21;1.59;0.23;3;0.4;;;;;;;;1;ICPMS;;;;;7.6;ICPMS;;;;;;;;;;;;;;;;;;;;;;;;;;;;;;;;;;;;;;;;;;;;;;;;;;;;;;;;;;;;;;;;;;;;;;;;;;;;;;;;;;;
2012;[15790] TEMIZEL I. (2012);samp. EC-12;;ANATOLIA-IRAN BELT / TURKEY / PONTIDES;ELEKCIOGLU TEPE DOME, ULUBEY (ORDU) AREA;40.87;37.76;40.87;37.76;;;OUTCROP;;;SUBAERIAL;VOLCANIC ROCK;TRACHYDACITE;;;;;CENOZOIC;;;;;WHOLE ROCK;;;;;;;;;;;;;66.83;0.26;;;15.61;;;;;;;;;2.78;;;;2.74;1.02;0.02;;;;;;;4.8;ICPAES;;;3.28;0.11;;;;;;;;;;;;;;2.3;;;;;;;;;;;;;;;;;;;;;;;;;;;;;;;;;;;;;4;2.1;;;;;;;;134.7;ICPMS;;;611;ICPMS;;;14.7;ICPMS;;;113.1;ICPMS;;;5.4;ICPMS;;;;;;;;;;;;;;884.1;ICPMS;;;25.6;ICPMS;;;46.8;ICPMS;;;4.81;17.2;ICPMS;;;3.3;ICPMS;;;0.77;2.74;0.41;2.17;0.45;1.19;0.21;1.39;0.24;3.3;0.3;;;;;;;;1.3;ICPMS;;;;;8.4;ICPMS;;;;0.512594;;;;0.1056;0.705314;;;;0.6391;;;;;;;;;;;;;;;;;;;;;;;;;;;;;;;;;;;;;;;;;;;;;;;;;;;;;;;;;;;;;;;;;;;;;;
2012;[15790] TEMIZEL I. (2012);samp. EC-12;;ANATOLIA-IRAN BELT / TURKEY / PONTIDES;ELEKCIOGLU TEPE DOME, ULUBEY (ORDU) AREA;40.87;37.76;40.87;37.76;;;OUTCROP;;;SUBAERIAL;VOLCANIC ROCK;TRACHYDACITE;;;;;CENOZOIC;;;;;MINERAL / COMPONENT (INCL. GROUNDMASS);GROUNDMASS;;;;PRIMARY;;;;;;;;;;;;;;;;;;;;;;;;;;;;;;;;;;;;;;;;;;;;;;;;;;;;;;;;;;;;;;;;;;;;;;;;;;;;;;;;;;;;;;;;;;;;;;;;;;;;;;;;;;;;;;;;;;;;;;;;;;;;;;;;;;;;;;;;;;;;;;;;;;;;;;;;;;;;;;;;;;;;;;;;;;;;;;;;;;;;;;;;;;;;;;;;;;;;;;;;;;;;;;;;;;;;;;;;;;;;;;;;;;;;;;;;;;;;;;;;;;42.8;AR-AR;44.6;AR-AR;;;;;;;;;;;;;;
2012;[15953] ERSOY Y.(2012)  [GeoReM [6679] ];samp. 755;;ANATOLIA-IRAN BELT / TURKEY / WESTERN ANATOLIAN VOLCANIC BELT / ASITEPE VOLCANICS;DEMIRCI BASIN;39.11;28.89;39.11;28.89;;;OUTCROP;;;SUBAERIAL;VOLCANIC ROCK;TRACHYDACITE;;HIGH-K CA;;;MIOCENE;;;;;WHOLE ROCK;;;;;;;;;;;;;63.87;0.65;;;16.52;;;;;;;;;4.26;;;;4.42;1.41;0.07;;;;;;;3.03;ICPAES;;;3.14;0.179;;;;;;;;;;;;;;2.3;;;;;;;;;;;;;;;;;;;;;;;;;12;ICPMS;;;;;;;95;;;;36.7;2.5;;;16.7;;;;;106.9;ICPMS;;;358.3;ICPMS;;;21.3;ICPMS;;;158.9;ICPMS;;;11;ICPMS;;;;;;;;;;;;;6;712;ICPMS;;;32.4;ICPMS;;;58.9;ICPMS;;;6.68;26.4;ICPMS;;;4.78;ICPMS;;;1.13;4.5;0.7;3.58;0.71;2.05;0.37;2.05;0.32;4.5;;240.6;;;;;;;1.5;ICPMS;;;;;13.1;ICPMS;;;4.2;;;;;;;;;;;;;;;;;;;;;;;;;;;;;;;;;;;;;;;;;;;;;;;;;;;;;;;;;;;;;;;;;;;;;;;;;;;;;;;;
2012;[15953] ERSOY Y.(2012)  [GeoReM [6679] ];samp. 741;;ANATOLIA-IRAN BELT / TURKEY / WESTERN ANATOLIAN VOLCANIC BELT / KARABACAKLAR VOLCANICS;GÜRE BASIN;38.46;29.95;38.46;29.95;;;OUTCROP;;;SUBAERIAL;VOLCANIC ROCK;TRACHYDACITE;;SHOSHONITIC;;;MIOCENE;;;;;WHOLE ROCK;;;;;;;;;;;;;62.37;1.17;;;14.83;;;;;;;;;3.87;;;;1.92;1.39;0.01;;;;;;;6.88;ICPAES;;;1.92;0.85;;;;;;;;;;;;;;4.5;;;;;;;;;;;;;;;;;;;;;;;;;9;ICPMS;;;;;;;99;198.4325;;;18;60.8;;;19.4;;;;;295.5;ICPMS;;;658.7;ICPMS;;;21.6;ICPMS;;;576.3;ICPMS;;;25.4;ICPMS;;;;;;;;;;;;;91.1;1377;ICPMS;;;47;ICPMS;;;97.3;ICPMS;;;12.21;47.6;ICPMS;;;8.47;ICPMS;;;1.92;6.4;0.87;4.25;0.7;1.84;0.25;1.69;0.23;16.8;1.5;122.6;;;;;;;2.5;ICPMS;;;;;17.3;ICPMS;;;6.5;;;;;;;;;;;;;;;;;;;;;;;;;;;;;;;;;;;;;;;;;;;;;;;;;;;;;;;;;;;;;;;;;;;;;;;;;;;;;;;;
2012;[15953] ERSOY Y.(2012)  [GeoReM [6679] ];samp. G2;;ANATOLIA-IRAN BELT / TURKEY / WESTERN ANATOLIAN VOLCANIC BELT / KARABACAKLAR VOLCANICS;GÜRE BASIN;38.46;29.95;38.46;29.95;;;OUTCROP;;;SUBAERIAL;VOLCANIC ROCK;TRACHYDACITE;;SHOSHONITIC;;;MIOCENE;;;;;WHOLE ROCK;;;;;;;;;;;;;62.07;1.14;;;14.63;;;;;;;;;4;;;;1.88;1.52;0.01;;;;;;;6.55;ICPAES;;;1.75;0.87;;;;;;;;;;;;;;5.1;;;;;;;;;;;;;;;;;;;;;;;;;9;ICPMS;;;;;;;92;184.7475;;;32.9;89;;;20.4;;;;;302.8;ICPMS;;;628.5;ICPMS;;;23.8;ICPMS;;;605.5;ICPMS;;;24.2;ICPMS;;;;;;;;;;;;;64.6;1554.7;ICPMS;;;54.5;ICPMS;;;111.9;ICPMS;;;14.05;51.7;ICPMS;;;10.3;ICPMS;;;2.03;6.76;0.84;4.72;0.78;2.02;0.27;1.67;0.22;17.7;1.7;115.8;;;;;;;4;ICPMS;;;;;18.4;ICPMS;;;6.6;;;;;;;;;;;;;;;;;;;;;;;;;;;;;;;;;;;;;;;;;;;;;;;;;;;;;;;;;;;;;;;;;;;;;;;;;;;;;;;;
2012;[15962] WANG YANG (2012);samp. 420-2;;CENTRAL ASIAN FOLDBELT - MESOZOIC / CHINA - MESOZOIC / LIAONING PROVINCE / XINGLONGGOU FORMATION;SANBAO SIKENG GULLY, BEIPIAO AREA, WESTERN LIAONING PROVINCE;41.78;120.75;41.78;120.75;;;OUTCROP;;;SUBAERIAL;VOLCANIC ROCK;TRACHYDACITE;;;;;MESOZOIC;;;;;WHOLE ROCK;;;;;;;;;;;;;67.22;0.79;;;14.55;;;;;;;;;;3.98;;0.34;1.13;1.16;0.02;;;;;;;7.1;ICPAES;;;1.96;0.25;;;;;;;;;;;;;;1.36;;;;;;;;17.26;;;;;;;;;;;;;;;;;8.35;ICPMS;;;;;;;66.9;203.9;;;12.22;108.87;;;13.88;;;;;159.77;ICPMS;;;196;ICPMS;;;16.45;ICPMS;;;180;ICPMS;;;8.78;ICPMS;;;;;;;;;;;;;0.95;2039;ICPMS;;;32.1;ICPMS;;;55.8;ICPMS;;;7.4;27.3;ICPMS;;;5.07;ICPMS;;;1.24;4.09;0.71;3.23;0.61;1.63;0.24;1.42;0.19;5.21;0.73;;;;;;;;19.49;ICPMS;;;;;10.04;ICPMS;;;2.52;0.512508;;;;;0.712539;;;;;18.276;;;;15.5;;;38.205;;;;;;;;;;;;;;;;;;;;;;;;;;;;;;;;;;;;;;;;;;;;;;;;;;;;;;;;;;;;;;
1991;[16024] COLUCCI M. T. (1991);samp. COV-59B;;NORTH AMERICAN CORDILLERA - CENOZOIC/QUATERNARY / CORDILLERA UNITED STATES / COLORADO / SAN JUAN VOLCANIC FIELD / CONEJOS FORMATION;ROCK CREEK MEMBER;37.75;-106.38;37.75;-106.38;;;OUTCROP;;;SUBAERIAL;VOLCANIC ROCK;TRACHYDACITE;;;;;OLIGOCENE;;;;;WHOLE ROCK;;;;;;;;;;;;;62.9;0.89;;;15.79;;;;;;;;;;;4.66;;3.74;0.84;0.06;;;;;;;4.93;XRF;;;3.83;0.29;;;;;;;;;;;;;;;;;;;;;;;;;;;;;;;;;;;;;;;;;;;;;;;37;18;;;;15;;;;;;;;182;XRF;;;464;XRF;;;43;XRF;;;579;XRF;;;27;XRF;;;;;;;;;;;;;;1164;XRF;;;62.9;INAA;;;131;INAA;;;;59.9;INAA;;;10.5;INAA;;;1.97;;1.32;;;;;3.21;0.55;11.6;1.69;;;;;;;;;;;;;;20.4;INAA;;;;;0.512264;;;;;0.70523;;;;;17.892;;;;15.528;;;37.464;;;;;;;;;;;;;;;;;;;;;;;;;;;;;;;;;;;;;;;;;;;;;;;;;;;;;;;;;;;;;
1991;[16024] COLUCCI M. T. (1991);samp. COV-200;;NORTH AMERICAN CORDILLERA - CENOZOIC/QUATERNARY / CORDILLERA UNITED STATES / COLORADO / SAN JUAN VOLCANIC FIELD / CONEJOS FORMATION;ROCK CREEK MEMBER;37.75;-106.38;37.75;-106.38;;;OUTCROP;;;SUBAERIAL;VOLCANIC ROCK;TRACHYDACITE;;;;;OLIGOCENE;;;;;WHOLE ROCK;;;;;;;;;;;;;62.2;0.92;;;17.42;;;;;;;;;;;5.1;;3.38;1.44;0.1;;;;;;;2.71;XRF;;;3.02;0.33;;;;;;;;;;;;;;;;;;;;;;;;;;;;;;;;;;;;;;;;;;;;;;;47;14;;;;18;;;;;;;;205;XRF;;;492;XRF;;;42;XRF;;;546;XRF;;;27;XRF;;;;;;;;;;;;;;1123;XRF;;;69.2;INAA;;;143.6;INAA;;;;61;INAA;;;11.13;INAA;;;1.98;;1.15;;;;;3.58;0.59;13.38;1.51;;;;;;;;;;;;;;20;INAA;;;;;;;;;;;;;;;;;;;;;;;;;;;;;;;;;;;;;;;;;;;;;;;;;;;;;;;;;;;;;;;;;;;;;;;;;;;;;;;;;;;
1991;[16024] COLUCCI M. T. (1991);samp. COV-200;;NORTH AMERICAN CORDILLERA - CENOZOIC/QUATERNARY / CORDILLERA UNITED STATES / COLORADO / SAN JUAN VOLCANIC FIELD / CONEJOS FORMATION;ROCK CREEK MEMBER;37.75;-106.38;37.75;-106.38;;;OUTCROP;;;SUBAERIAL;VOLCANIC ROCK;TRACHYDACITE;;;;;OLIGOCENE;;;;;MINERAL / COMPONENT (INCL. GROUNDMASS);CLINOPYROXENE;;;CORE;PRIMARY;;;;;;;;52;0.63;;;2.34;;;;;;;;;;2.49;;6.81;20.48;15.1;0.39;;;;;;;;;;;0.38;;;;;;;;;;;;;;;;;;;;;;;;;;;;;;;;;;;;;;;;;;;;;;;;;;;;;;;;;;;;;;;;;;;;;;;;;;;;;;;;;;;;;;;;;;;;;;;;;;;;;;;;;;;;;;;;;;;;;;;;;;;;;;;;;;;;;;;;;;;;;;;;;;;;;;;;;;;;;;;;;;;;;;;;;;;;;;;;;;;;;;;;;;;;;;;;48;;;12;;;;40;;;;;;;;;;;;;;;;;;;;;;