Year;CITATION;SAMPLE NAME;UNIQUE_ID;LOCATION;LOCATION COMMENT;LATITUDE (MIN.);LONGITUDE (MIN.);LATITUDE (MAX.);LONGITUDE (MAX.);ELEVATION (MIN.);ELEVATION (MAX.);SAMPLING TECHNIQUE;DRILLING DEPTH (MIN.);DRILLING DEPTH (MAX.);LAND/SEA (SAMPLING);ROCK TYPE;ROCK NAME;ROCK TEXTURE;SAMPLE COMMENT;AGE (MIN.);AGE (MAX.);GEOLOGICAL AGE;GEOLOGICAL AGE PREFIX;ERUPTION YEAR;ALTERATION;ALTERATION TYPE;TYPE OF MATERIAL;MINERAL / COMPONENT;SPOT (MINERAL);CRYSTAL;RIM / CORE (MINERAL GRAINS);PRIMARY/SECONDARY;INCLUSION TYPE;SPOT (INCLUSION);MINERAL (INCLUSION);RIM / CORE (INCLUSION);HOSTMINERAL (INCLUSION);HEATING;HEATING TEMPERATURE (?C);SIO2(WT%);TIO2(WT%);ZRO2(WT%);B2O3(WT%);AL2O3(WT%);CR2O3(WT%);LA2O3(WT%);CE2O3(WT%);Y2O3(WT%);V2O3(WT%);NB2O3(WT%);TA2O5(WT%);WO3(WT%);FE2O3T(WT%);FE2O3(WT%);FEOT(WT%);FEO(WT%);CAO(WT%);MGO(WT%);MNO(WT%);BAO(WT%);SRO(WT%);NIO(WT%);ZNO(WT%);CS2O(WT%);RB2O(WT%);K2O(WT%);;;;NA2O(WT%);P2O5(WT%);H2O(WT%);;;;H2OP(WT%);H2OM(WT%);CO2(WT%);C(WT%);F(WT%);CL(WT%);SO2(WT%);SO3(WT%);S(WT%);LOI(WT%);AL(WT%);TI(WT%);FE(WT%);MG(WT%);CA(WT%);K(WT%);NA(WT%);LI(PPM);BE(PPM);B(PPM);C(PPM);F(PPM);NA(PPM);MG(PPM);AL(PPM);P(PPM);S(PPM);CL(PPM);AR40(AT/G);AR40(CCMSTP/G);AR40(MOL/G);AR40(PPB);K(PPM);CA(PPM);SC(PPM);;;;TI(PPM);;;;V(PPM);CR(PPM);MN(PPM);FE(PPM);CO(PPM);NI(PPM);CU(PPM);ZN(PPM);GA(PPM);GE(PPM);AS(PPM);SE(PPM);BR(PPM);RB(PPM): altern. values or methods;;;;SR(PPM): altern. values or methods;;;;Y(PPM): altern. values or methods;;;;ZR(PPM): altern. values or methods;;;;NB(PPM): altern. values or methods;;;;MO(PPM): altern. values or methods;;;;AG(PPM);CD(PPM);IN(PPM);SN(PPM);SB(PPM);TE(PPM);CS(PPM);BA(PPM): altern. values or methods;;;;LA(PPM): altern. values or methods;;;;CE(PPM): altern. values or methods;;;;PR(PPM);ND(PPM): altern. values or methods;;;;SM(PPM): altern. values or methods;;;;EU(PPM);GD(PPM);TB(PPM);DY(PPM);HO(PPM);ER(PPM);TM(PPM);YB(PPM);LU(PPM);HF(PPM);TA(PPM);W(PPM);RE(PPM);AU(PPM);AU(PPB);HG(PPM);HG(PPB);TL(PPM);PB(PPM): altern. values or methods;;;;PB206(PPM);BI(PPM);TH(PPM): altern. values or methods;;;;U(PPM);ND143_ND144;ND143_ND144_INI;EPSILON_ND;EPSILON_ND_INI;SM147_ND144;SR87_SR86;SR87_SR86_INI;EPSILON_SR;EPSILON_SR_INI;RB87_SR86;PB206_PB204;PB206_PB204_INI;PB206_PB207;PB206_PB208;PB207_PB204;PB207_PB204_INI;PB207_PB206;PB208_PB204;PB208_PB204_INI;PB208_PB206;HF176_HF177;HF176_HF177_INI;EPSILON_HF_INI;LU176_HF177;YB176_HF177;AR36_AR39;AR36_AR40;AR37_AR39;AR38_AR39;AR39_AR40;AR40_AR36;AR40_AR39;PB206_U238;PB207_U235;PB208_TH232;TH232_PB204;TH232_U238;U235_PB204;U238_PB204;U238_PB206;D7LI(VS LSVEC);D18O(PER MIL);D18O(VS SMOW);D18O(VS VSMOW);D56FE(VS IRMM-014);D57FE(VS IRMM-014);DD(VS SMOW);ALBITE(MOL%);ANORTHITE(MOL%);CA OLIVINE(MOL%);ENSTATITE(MOL%);FAYALITE(MOL%);FORSTERITE(MOL%);FERROSILITE(MOL%);ORTHOCLASE(MOL%);TEPHROITE(MOL%);ULVOSPINEL(MOL%);WOLLASTONITE(MOL%);AGE(KA): altern. values or methods;;;;AGE(MA): altern. values or methods;;;;;;;;AGE_PB207_PB206(MA);AGE_PB207_U235(MA);AGE_PB206_U238(MA): altern. values or methods;;;;;;AGE_PB208_TH232(MA);
2011;[15311] GUZMAN S. R. (2011);samp. CMS-30;;ANDEAN ARC / CENTRAL ANDEAN VOLCANIC ZONE / ARGENTINA / LUINGO CALDERA / LAVA II UNIT;SE MARGIN OF PUNA PLATEAU;-26.1553;-66.7143;-26.1553;-66.7143;;;OUTCROP;;;SUBAERIAL;VOLCANIC ROCK;TRACHYDACITE;FINE- TO MEDIUM-GRAINED, PORPHYRITIC, MICRO- TO CRYPTOCRYSTALLINE, INTERSERTAL AND/OR PILOTAXIC GROUNDMASS;;;;MIOCENE;MIDDLE;;;;MINERAL / COMPONENT (INCL. GROUNDMASS);PYROXENE;;;RIM;PRIMARY;;;;;;;;52.55;0.17;;;1.1;0.02;;;;;;;;;0;;8.92;22.42;14.18;0.63;;;0;;;;0;EMP (EPMA);;;0.04;;;;;;;;;;;;;;;;;;;;;;;;;;;;;;;;;;;;;;;;;;;;;;;;;;;;;;;;;;;;;;;;;;;;;;;;;;;;;;;;;;;;;;;;;;;;;;;;;;;;;;;;;;;;;;;;;;;;;;;;;;;;;;;;;;;;;;;;;;;;;;;;;;;;;;;;;;;;;;;;;;;;;;;;;;;;;;;;;;;;;;;;;;;;;;;;;;;;;;;;;;;;;;;;;;;;;;;;;;;;;
2011;[15311] GUZMAN S. R. (2011);samp. CMS-28;;ANDEAN ARC / CENTRAL ANDEAN VOLCANIC ZONE / ARGENTINA / LUINGO CALDERA / LAVA II UNIT;SE MARGIN OF PUNA PLATEAU;-26.1132;-66.6738;-26.1132;-66.6738;;;OUTCROP;;;SUBAERIAL;VOLCANIC ROCK;TRACHYDACITE;FINE- TO MEDIUM-GRAINED, PORPHYRITIC, MICRO- TO CRYPTOCRYSTALLINE, INTERSERTAL AND/OR PILOTAXIC GROUNDMASS;;;;MIOCENE;MIDDLE;;;;MINERAL / COMPONENT (INCL. GROUNDMASS);AMPHIBOLE;;;RIM;PRIMARY;;;;;;;;46.04;1.91;;;8.47;0.01;;;;;;;;;4.14;;8.93;11.34;14.98;0.31;;;;0;;;0.88;EMP (EPMA);;;1.65;;;;;;;;;;;;;;;;;;;;;;;;;;;;;;;;;;;;;;;;;;;;;;;;;;;;;;;;;;;;;;;;;;;;;;;;;;;;;;;;;;;;;;;;;;;;;;;;;;;;;;;;;;;;;;;;;;;;;;;;;;;;;;;;;;;;;;;;;;;;;;;;;;;;;;;;;;;;;;;;;;;;;;;;;;;;;;;;;;;;;;;;;;;;;;;;;;;;;;;;;;;;;;;;;;;;;;;;;;;;;
2011;[15311] GUZMAN S. R. (2011);samp. CMS-28;;ANDEAN ARC / CENTRAL ANDEAN VOLCANIC ZONE / ARGENTINA / LUINGO CALDERA / LAVA II UNIT;SE MARGIN OF PUNA PLATEAU;-26.1132;-66.6738;-26.1132;-66.6738;;;OUTCROP;;;SUBAERIAL;VOLCANIC ROCK;TRACHYDACITE;FINE- TO MEDIUM-GRAINED, PORPHYRITIC, MICRO- TO CRYPTOCRYSTALLINE, INTERSERTAL AND/OR PILOTAXIC GROUNDMASS;;;;MIOCENE;MIDDLE;;;;MINERAL / COMPONENT (INCL. GROUNDMASS);AMPHIBOLE;;;CORE;PRIMARY;;;;;;;;42.78;2.87;;;11.39;0;;;;;;;;;3.9;;8.89;11.34;14.02;0.15;;;;0;;;1.06;EMP (EPMA);;;1.88;;;;;;;;;;;;;;;;;;;;;;;;;;;;;;;;;;;;;;;;;;;;;;;;;;;;;;;;;;;;;;;;;;;;;;;;;;;;;;;;;;;;;;;;;;;;;;;;;;;;;;;;;;;;;;;;;;;;;;;;;;;;;;;;;;;;;;;;;;;;;;;;;;;;;;;;;;;;;;;;;;;;;;;;;;;;;;;;;;;;;;;;;;;;;;;;;;;;;;;;;;;;;;;;;;;;;;;;;;;;;
2011;[15311] GUZMAN S. R. (2011);samp. CMS-28;;ANDEAN ARC / CENTRAL ANDEAN VOLCANIC ZONE / ARGENTINA / LUINGO CALDERA / LAVA II UNIT;SE MARGIN OF PUNA PLATEAU;-26.1132;-66.6738;-26.1132;-66.6738;;;OUTCROP;;;SUBAERIAL;VOLCANIC ROCK;TRACHYDACITE;FINE- TO MEDIUM-GRAINED, PORPHYRITIC, MICRO- TO CRYPTOCRYSTALLINE, INTERSERTAL AND/OR PILOTAXIC GROUNDMASS;;;;MIOCENE;MIDDLE;;;;MINERAL / COMPONENT (INCL. GROUNDMASS);AMPHIBOLE;;;RIM;PRIMARY;;;;;;;;47.13;1.66;;;8.08;0.06;;;;;;;;;5.37;;7.94;11.32;15.54;0.34;;;;0;;;0.78;EMP (EPMA);;;1.48;;;;;;;;;;;;;;;;;;;;;;;;;;;;;;;;;;;;;;;;;;;;;;;;;;;;;;;;;;;;;;;;;;;;;;;;;;;;;;;;;;;;;;;;;;;;;;;;;;;;;;;;;;;;;;;;;;;;;;;;;;;;;;;;;;;;;;;;;;;;;;;;;;;;;;;;;;;;;;;;;;;;;;;;;;;;;;;;;;;;;;;;;;;;;;;;;;;;;;;;;;;;;;;;;;;;;;;;;;;;;
2011;[15311] GUZMAN S. R. (2011);samp. CMS-28;;ANDEAN ARC / CENTRAL ANDEAN VOLCANIC ZONE / ARGENTINA / LUINGO CALDERA / LAVA II UNIT;SE MARGIN OF PUNA PLATEAU;-26.1132;-66.6738;-26.1132;-66.6738;;;OUTCROP;;;SUBAERIAL;VOLCANIC ROCK;TRACHYDACITE;FINE- TO MEDIUM-GRAINED, PORPHYRITIC, MICRO- TO CRYPTOCRYSTALLINE, INTERSERTAL AND/OR PILOTAXIC GROUNDMASS;;;;MIOCENE;MIDDLE;;;;MINERAL / COMPONENT (INCL. GROUNDMASS);MICA;;;CORE;PRIMARY;;;;;;;;37.28;4.75;;;13.92;;;;;;;;;;0.51;;13.74;0;16.02;0.09;0.09;0;;;;;8.99;EMP (EPMA);;;0.8;;4;EMP (EPMA);;;;;;;;0.23;;;;;;;;;;;;;;;;;;;;;;;;;;;;;;;;;;;;;;;;;;;;;;;;;;;;;;;;;;;;;;;;;;;;;;;;;;;;;;;;;;;;;;;;;;;;;;;;;;;;;;;;;;;;;;;;;;;;;;;;;;;;;;;;;;;;;;;;;;;;;;;;;;;;;;;;;;;;;;;;;;;;;;;;;;;;;;;;;;;;;;;;;;;;;;;;;;;;;;;;;;;;;;;;;;
2011;[15311] GUZMAN S. R. (2011);samp. CMS-28;;ANDEAN ARC / CENTRAL ANDEAN VOLCANIC ZONE / ARGENTINA / LUINGO CALDERA / LAVA II UNIT;SE MARGIN OF PUNA PLATEAU;-26.1132;-66.6738;-26.1132;-66.6738;;;OUTCROP;;;SUBAERIAL;VOLCANIC ROCK;TRACHYDACITE;FINE- TO MEDIUM-GRAINED, PORPHYRITIC, MICRO- TO CRYPTOCRYSTALLINE, INTERSERTAL AND/OR PILOTAXIC GROUNDMASS;;;;MIOCENE;MIDDLE;;;;MINERAL / COMPONENT (INCL. GROUNDMASS);MICA;;;RIM;PRIMARY;;;;;;;;37.39;4.59;;;13.71;;;;;;;;;;0.36;;13.3;0.01;16.22;0.12;0.18;0;;;;;9.02;EMP (EPMA);;;0.59;;3.97;EMP (EPMA);;;;;;;;0.25;;;;;;;;;;;;;;;;;;;;;;;;;;;;;;;;;;;;;;;;;;;;;;;;;;;;;;;;;;;;;;;;;;;;;;;;;;;;;;;;;;;;;;;;;;;;;;;;;;;;;;;;;;;;;;;;;;;;;;;;;;;;;;;;;;;;;;;;;;;;;;;;;;;;;;;;;;;;;;;;;;;;;;;;;;;;;;;;;;;;;;;;;;;;;;;;;;;;;;;;;;;;;;;;;;
2011;[15311] GUZMAN S. R. (2011);samp. CMS-30;;ANDEAN ARC / CENTRAL ANDEAN VOLCANIC ZONE / ARGENTINA / LUINGO CALDERA / LAVA II UNIT;SE MARGIN OF PUNA PLATEAU;-26.1553;-66.7143;-26.1553;-66.7143;;;OUTCROP;;;SUBAERIAL;VOLCANIC ROCK;TRACHYDACITE;FINE- TO MEDIUM-GRAINED, PORPHYRITIC, MICRO- TO CRYPTOCRYSTALLINE, INTERSERTAL AND/OR PILOTAXIC GROUNDMASS;;;;MIOCENE;MIDDLE;;;;MINERAL / COMPONENT (INCL. GROUNDMASS);FELDSPAR;;;RIM;PRIMARY;;;;;;;;58.98;;;;25.68;;;;;;;;;;;0.3;;7.85;;;0.04;0.03;;;;;0.87;EMP (EPMA);;;7.08;;;;;;;;;;;;;;;;;;;;;;;;;;;;;;;;;;;;;;;;;;;;;;;;;;;;;;;;;;;;;;;;;;;;;;;;;;;;;;;;;;;;;;;;;;;;;;;;;;;;;;;;;;;;;;;;;;;;;;;;;;;;;;;;;;;;;;;;;;;;;;;;;;;;;;;;;;;;;;;;;;;;;;;;;;;;;;;;;;;;;;;;;;;;;;;;;;;;;;;;;;;;;;;;;;;;;;;;;;;;;
2011;[15311] GUZMAN S. R. (2011);samp. CMS-30;;ANDEAN ARC / CENTRAL ANDEAN VOLCANIC ZONE / ARGENTINA / LUINGO CALDERA / LAVA II UNIT;SE MARGIN OF PUNA PLATEAU;-26.1553;-66.7143;-26.1553;-66.7143;;;OUTCROP;;;SUBAERIAL;VOLCANIC ROCK;TRACHYDACITE;FINE- TO MEDIUM-GRAINED, PORPHYRITIC, MICRO- TO CRYPTOCRYSTALLINE, INTERSERTAL AND/OR PILOTAXIC GROUNDMASS;;;;MIOCENE;MIDDLE;;;;MINERAL / COMPONENT (INCL. GROUNDMASS);FELDSPAR;;;CORE;PRIMARY;;;;;;;;55.25;;;;27.21;;;;;;;;;;;0.21;;10.21;;;0.03;0.02;;;;;0.47;EMP (EPMA);;;4.96;;;;;;;;;;;;;;;;;;;;;;;;;;;;;;;;;;;;;;;;;;;;;;;;;;;;;;;;;;;;;;;;;;;;;;;;;;;;;;;;;;;;;;;;;;;;;;;;;;;;;;;;;;;;;;;;;;;;;;;;;;;;;;;;;;;;;;;;;;;;;;;;;;;;;;;;;;;;;;;;;;;;;;;;;;;;;;;;;;;;;;;;;;;;;;;;;;;;;;;;;;;;;;;;;;;;;;;;;;;;;
2011;[15311] GUZMAN S. R. (2011);samp. CMS-30;;ANDEAN ARC / CENTRAL ANDEAN VOLCANIC ZONE / ARGENTINA / LUINGO CALDERA / LAVA II UNIT;SE MARGIN OF PUNA PLATEAU;-26.1553;-66.7143;-26.1553;-66.7143;;;OUTCROP;;;SUBAERIAL;VOLCANIC ROCK;TRACHYDACITE;FINE- TO MEDIUM-GRAINED, PORPHYRITIC, MICRO- TO CRYPTOCRYSTALLINE, INTERSERTAL AND/OR PILOTAXIC GROUNDMASS;;;;MIOCENE;MIDDLE;;;;MINERAL / COMPONENT (INCL. GROUNDMASS);FELDSPAR;;;RIM;PRIMARY;;;;;;;;58.32;;;;26.09;;;;;;;;;;;0.3;;8.3;;;0.08;0.09;;;;;0.85;EMP (EPMA);;;6.88;;;;;;;;;;;;;;;;;;;;;;;;;;;;;;;;;;;;;;;;;;;;;;;;;;;;;;;;;;;;;;;;;;;;;;;;;;;;;;;;;;;;;;;;;;;;;;;;;;;;;;;;;;;;;;;;;;;;;;;;;;;;;;;;;;;;;;;;;;;;;;;;;;;;;;;;;;;;;;;;;;;;;;;;;;;;;;;;;;;;;;;;;;;;;;;;;;;;;;;;;;;;;;;;;;;;;;;;;;;;;
2011;[15311] GUZMAN S. R. (2011);samp. CMS-30;;ANDEAN ARC / CENTRAL ANDEAN VOLCANIC ZONE / ARGENTINA / LUINGO CALDERA / LAVA II UNIT;SE MARGIN OF PUNA PLATEAU;-26.1553;-66.7143;-26.1553;-66.7143;;;OUTCROP;;;SUBAERIAL;VOLCANIC ROCK;TRACHYDACITE;FINE- TO MEDIUM-GRAINED, PORPHYRITIC, MICRO- TO CRYPTOCRYSTALLINE, INTERSERTAL AND/OR PILOTAXIC GROUNDMASS;;;;MIOCENE;MIDDLE;;;;MINERAL / COMPONENT (INCL. GROUNDMASS);FELDSPAR;;;RIM;PRIMARY;;;;;;;;52.39;;;;29.65;;;;;;;;;;;0.85;;12.79;;;0;0;;;;;0.28;EMP (EPMA);;;4.48;;;;;;;;;;;;;;;;;;;;;;;;;;;;;;;;;;;;;;;;;;;;;;;;;;;;;;;;;;;;;;;;;;;;;;;;;;;;;;;;;;;;;;;;;;;;;;;;;;;;;;;;;;;;;;;;;;;;;;;;;;;;;;;;;;;;;;;;;;;;;;;;;;;;;;;;;;;;;;;;;;;;;;;;;;;;;;;;;;;;;;;;;;;;;;;;;;;;;;;;;;;;;;;;;;;;;;;;;;;;;
2011;[15311] GUZMAN S. R. (2011);samp. CMS-30;;ANDEAN ARC / CENTRAL ANDEAN VOLCANIC ZONE / ARGENTINA / LUINGO CALDERA / LAVA II UNIT;SE MARGIN OF PUNA PLATEAU;-26.1553;-66.7143;-26.1553;-66.7143;;;OUTCROP;;;SUBAERIAL;VOLCANIC ROCK;TRACHYDACITE;FINE- TO MEDIUM-GRAINED, PORPHYRITIC, MICRO- TO CRYPTOCRYSTALLINE, INTERSERTAL AND/OR PILOTAXIC GROUNDMASS;;;;MIOCENE;MIDDLE;;;;MINERAL / COMPONENT (INCL. GROUNDMASS);FELDSPAR;;;CORE;PRIMARY;;;;;;;;57.77;;;;26.24;;;;;;;;;;;0.29;;8.41;;;0.15;0;;;;;0.64;EMP (EPMA);;;7.09;;;;;;;;;;;;;;;;;;;;;;;;;;;;;;;;;;;;;;;;;;;;;;;;;;;;;;;;;;;;;;;;;;;;;;;;;;;;;;;;;;;;;;;;;;;;;;;;;;;;;;;;;;;;;;;;;;;;;;;;;;;;;;;;;;;;;;;;;;;;;;;;;;;;;;;;;;;;;;;;;;;;;;;;;;;;;;;;;;;;;;;;;;;;;;;;;;;;;;;;;;;;;;;;;;;;;;;;;;;;;
2011;[15311] GUZMAN S. R. (2011);samp. CMS-30;;ANDEAN ARC / CENTRAL ANDEAN VOLCANIC ZONE / ARGENTINA / LUINGO CALDERA / LAVA II UNIT;SE MARGIN OF PUNA PLATEAU;-26.1553;-66.7143;-26.1553;-66.7143;;;OUTCROP;;;SUBAERIAL;VOLCANIC ROCK;TRACHYDACITE;FINE- TO MEDIUM-GRAINED, PORPHYRITIC, MICRO- TO CRYPTOCRYSTALLINE, INTERSERTAL AND/OR PILOTAXIC GROUNDMASS;;;;MIOCENE;MIDDLE;;;;MINERAL / COMPONENT (INCL. GROUNDMASS);FELDSPAR;;;RIM;PRIMARY;;;;;;;;52.14;;;;29.63;;;;;;;;;;;0.62;;13.08;;;0.13;0.09;;;;;0.32;EMP (EPMA);;;4.26;;;;;;;;;;;;;;;;;;;;;;;;;;;;;;;;;;;;;;;;;;;;;;;;;;;;;;;;;;;;;;;;;;;;;;;;;;;;;;;;;;;;;;;;;;;;;;;;;;;;;;;;;;;;;;;;;;;;;;;;;;;;;;;;;;;;;;;;;;;;;;;;;;;;;;;;;;;;;;;;;;;;;;;;;;;;;;;;;;;;;;;;;;;;;;;;;;;;;;;;;;;;;;;;;;;;;;;;;;;;;
2011;[15311] GUZMAN S. R. (2011);samp. CMS-30;;ANDEAN ARC / CENTRAL ANDEAN VOLCANIC ZONE / ARGENTINA / LUINGO CALDERA / LAVA II UNIT;SE MARGIN OF PUNA PLATEAU;-26.1553;-66.7143;-26.1553;-66.7143;;;OUTCROP;;;SUBAERIAL;VOLCANIC ROCK;TRACHYDACITE;FINE- TO MEDIUM-GRAINED, PORPHYRITIC, MICRO- TO CRYPTOCRYSTALLINE, INTERSERTAL AND/OR PILOTAXIC GROUNDMASS;;;;MIOCENE;MIDDLE;;;;MINERAL / COMPONENT (INCL. GROUNDMASS);SPINEL;;;CORE;PRIMARY;;;;;;;;0.11;3.32;;;1.31;0.08;;;;0.3;;;;;61.1;;32;0.13;1.04;0.72;;;0.04;0.12;;;;;;;;;;;;;;;;;;;;;;;;;;;;;;;;;;;;;;;;;;;;;;;;;;;;;;;;;;;;;;;;;;;;;;;;;;;;;;;;;;;;;;;;;;;;;;;;;;;;;;;;;;;;;;;;;;;;;;;;;;;;;;;;;;;;;;;;;;;;;;;;;;;;;;;;;;;;;;;;;;;;;;;;;;;;;;;;;;;;;;;;;;;;;;;;;;;;;;;;;;;;;;;;;;;;;;;;;;;;;;;;;;;;
2011;[15311] GUZMAN S. R. (2011);samp. CMS-28;;ANDEAN ARC / CENTRAL ANDEAN VOLCANIC ZONE / ARGENTINA / LUINGO CALDERA / LAVA II UNIT;SE MARGIN OF PUNA PLATEAU;-26.1132;-66.6738;-26.1132;-66.6738;;;OUTCROP;;;SUBAERIAL;VOLCANIC ROCK;TRACHYDACITE;FINE- TO MEDIUM-GRAINED, PORPHYRITIC, MICRO- TO CRYPTOCRYSTALLINE, INTERSERTAL AND/OR PILOTAXIC GROUNDMASS;;;;MIOCENE;MIDDLE;;;;MINERAL / COMPONENT (INCL. GROUNDMASS);BIOTITE;;;;PRIMARY;;;;;;;;;;;;;;;;;;;;;;;;;;;;;;;;;;;;;;;;;;;;;;;;;;;;;;;;;;;;;;;;;;;;;;;;;;;;;;;;;;;;;;;;;;;;;;;;;;;;;;;;;;;;;;;;;;;;;;;;;;;;;;;;;;;;;;;;;;;;;;;;;;;;;;;;;;;;;;;;;;;;;;;;;;;;;;;;;;;;;;;;;;;;;;;;;;;;;;;;;;;;;;;;;;;;;;;;;;;;;;;;;;;;;;;;;;;;;;;;;;7.59;AR-AR;7.66;AR-AR;7.51;AR-AR;;;;;;;;;;;;
2011;[15311] GUZMAN S. R. (2011);samp. CMS-30;;ANDEAN ARC / CENTRAL ANDEAN VOLCANIC ZONE / ARGENTINA / LUINGO CALDERA / LAVA II UNIT;SE MARGIN OF PUNA PLATEAU;-26.1553;-66.7143;-26.1553;-66.7143;;;OUTCROP;;;SUBAERIAL;VOLCANIC ROCK;TRACHYDACITE;FINE- TO MEDIUM-GRAINED, PORPHYRITIC, MICRO- TO CRYPTOCRYSTALLINE, INTERSERTAL AND/OR PILOTAXIC GROUNDMASS;;;;MIOCENE;MIDDLE;;;;MINERAL / COMPONENT (INCL. GROUNDMASS);BIOTITE;;;;PRIMARY;;;;;;;;;;;;;;;;;;;;;;;;;;;;;;;;;;;;;;;;;;;;;;;;;;;;;;;;;;;;;;;;;;;;;;;;;;;;;;;;;;;;;;;;;;;;;;;;;;;;;;;;;;;;;;;;;;;;;;;;;;;;;;;;;;;;;;;;;;;;;;;;;;;;;;;;;;;;;;;;;;;;;;;;;;;;;;;;;;;;;;;;;;;;;;;;;;;;;;;;;;;;;;;;;;;;;;;;;;;;;;;;;;;;;;;;;;;;;;;;;;7.6;AR-AR;7.67;AR-AR;7.72;AR-AR;;;;;;;;;;;;
2000;[15355] YARMOLYUK V. V. (2000);samp. 135;;CENTRAL ASIAN FOLDBELT - MESOZOIC / TRANSBAIKALIA - MESOZOIC / WESTERN TRANSBAIKALIA;MONOSTOISK AREA, TUGNUI DEPRESSION;51.1;106.92;51.1;106.92;;;OUTCROP;;;SUBAERIAL;VOLCANIC ROCK;TRACHYDACITE;;;193800000;194000000;JURASSIC;LOWER;;;;WHOLE ROCK;;;;;;;;;;;;;66.5;0.6;;;17.03;;;;;;;;;3.13;;;;0.2;0.1;0.04;;;;;;;6.07;XRF;;;5.52;0.06;;;;;;;;;;;;;;0.71;;;;;;;;;;;;;;;;;;;;;;;;;;;;;;;;;;;;;;;;;;;;;;160;TIMS_ID;;;24;TIMS_ID;;;;;;;820;XRF;;;26;XRF;;;;;;;;;;;;;;200;XRF;;;;;;;;;;;;;;;;;;;;;;;;;;;;;;;;;;;;;;;;;;;;;;;;;;;;;;0.7577;;;;19.18;;;;;;;;;;;;;;;;;;;;;;;;;;;;;;;;;;;;;;;;;;;;;;;;;;;;;;;;;;;;;;;;;;;;;;
2000;[15355] YARMOLYUK V. V. (2000);samp. 136;;CENTRAL ASIAN FOLDBELT - MESOZOIC / TRANSBAIKALIA - MESOZOIC / WESTERN TRANSBAIKALIA;MONOSTOISK AREA, TUGNUI DEPRESSION;51.1;106.92;51.1;106.92;;;OUTCROP;;;SUBAERIAL;VOLCANIC ROCK;TRACHYDACITE;;;194000000;194000000;JURASSIC;LOWER;;;;WHOLE ROCK;;;;;;;;;;;;;65.98;0.6;;;16.4;;;;;;;;;3.89;;;;0.32;0.36;0.14;;;;;;;5.65;XRF;;;5.73;0.09;;;;;;;;;;;;;;0.82;;;;;;;;;;;;;;;;;;;;;;;;;;;;;;;;;;;;;;;;;;;;;;151;TIMS_ID;;;21;TIMS_ID;;;;;;;709;XRF;;;26;XRF;;;;;;;;;;;;;;200;XRF;;;;;;;;;;;;;;;;;;;;;;;;;;;;;;;;;;;;;;;;;;;;;;;;;;;;;;0.7654;;;;20.62;;;;;;;;;;;;;;;;;;;;;;;;;;;;;;;;;;;;;;;;;;;;;;;;;;;;;;;;;;;;;;;;;;;;;;
2000;[15355] YARMOLYUK V. V. (2000);samp. 138;;CENTRAL ASIAN FOLDBELT - MESOZOIC / TRANSBAIKALIA - MESOZOIC / WESTERN TRANSBAIKALIA;MONOSTOISK AREA, TUGNUI DEPRESSION;51.1;106.92;51.1;106.92;;;OUTCROP;;;SUBAERIAL;VOLCANIC ROCK;TRACHYDACITE;;;194000000;194000000;JURASSIC;LOWER;;;;WHOLE ROCK;;;;;;;;;;;;;66;0.73;;;16.75;;;;;;;;;3.99;;;;0.2;0.13;0.11;;;;;;;5.76;XRF;;;5.69;0.11;;;;;;;;;;;;;;0.46;;;;;;;;;;;;;;;;;;;;;;;;;;;;;;;;;;;;;;;;;;;;;;152;TIMS_ID;;;27;TIMS_ID;;;;;;;648;XRF;;;30;XRF;;;;;;;;;;;;;;200;XRF;;;;;;;;;;;;;;;;;;;;;;;;;;;;;;;;;;;;;;;;;;;;;;;;;;;;;;0.7509;;;;16.37;;;;;;;;;;;;;;;;;;;;;;;;;;;;;;;;;;;;;;;;;;;;;;;;;;;;;;;;;;;;;;;;;;;;;;
2000;[15355] YARMOLYUK V. V. (2000);samp. 1317;;CENTRAL ASIAN FOLDBELT - MESOZOIC / TRANSBAIKALIA - MESOZOIC / WESTERN TRANSBAIKALIA;MONOSTOISK AREA, TUGNUI DEPRESSION;51.1;106.92;51.1;106.92;;;OUTCROP;;;SUBAERIAL;VOLCANIC ROCK;TRACHYDACITE;;;194000000;194000000;JURASSIC;LOWER;;;;WHOLE ROCK;;;;;;;;;;;;;65.04;0.7;;;16.9;;;;;;;;;3.56;;;;1.03;0.43;0.06;;;;;;;6.28;XRF;;;5.13;0.17;;;;;;;;;;;;;;0.68;;;;;;;;;;;;;;;;;;;;;;;;;;;;;;;;;;;;;;;;;;;;;;160;TIMS_ID;;;312;TIMS_ID;;;;;;;642;XRF;;;25;XRF;;;;;;;;;;;;;;1190;XRF;;;;;;;;;;;;;;;;;;;;;;;;;;;;;;;;;;;;;;;;;;;;;;;;;;;;;;0.7113;;;;1.458;;;;;;;;;;;;;;;;;;;;;;;;;;;;;;;;;;;;;;;;;;;;;;;;;;;;;;;;;;;;;;;;;;;;;;
2003;[15374] GORDIENKO I. V. (2003);samp. VT-11;;CENTRAL ASIAN FOLDBELT - CENOZOIC/QUATERNARY / BAIKAL RIFT / VITIM PLATEAU;BEISYKHANSK, SW VITIM PLATEAU;53;112;54;113.5;;;OUTCROP;;;SUBAERIAL;VOLCANIC ROCK;TRACHYDACITE;;;;;PALEOZOIC;;;;;WHOLE ROCK;;;;;;;;;;;;;66.6;0.47;;;15.4;;;;;;;;;;1.93;;1.46;1.87;0.87;0.05;;;;;;;5.72;NOT;;;3.6;0.13;;;;;;;;;;;;;;;;;;;;;;;;;;;;;;;;;;;;;;;;;;;;;;;47;21;;;6;24;;;;;;;;200;XRF;;;460;XRF;;;21;XRF;;;250;XRF;;;12;XRF;;;;;;;;;;;;;;1170;XRF;;;;;;;;;;;;;;;;;;;;;;;;;;;;;;;;;;;;;;;;;;;;;;;;;;;;;;;;;;;;;;;;;;;;;;;;;;;;;;;;;;;;;;;;;;;;;;;;;;;;;;;;;;;;;;;;;;;;;;;;;;;;;;;;
2003;[15374] GORDIENKO I. V. (2003);samp. KHG-19;;CENTRAL ASIAN FOLDBELT - CENOZOIC/QUATERNARY / BAIKAL RIFT / VITIM PLATEAU;BEISYKHANSK, SW VITIM PLATEAU;53;112;54;113.5;;;OUTCROP;;;SUBAERIAL;VOLCANIC ROCK;TRACHYDACITE;;;;;PALEOZOIC;;;;;WHOLE ROCK;;;;;;;;;;;;;67.7;0.43;;;15.4;;;;;;;;;;1.2;;1.67;1.7;1.03;0.08;;;;;;;4.69;NOT;;;4.65;0.1;;;;;;;;;;;;;;;;;;;;;;;;;;;;;;;;;;;;;;;;;;;;;;;85;51;;;12;43;;;;;;;;130;XRF;;;270;XRF;;;23;XRF;;;360;XRF;;;21;XRF;;;;;;;;;;;;;;730;XRF;;;;;;;;;;;;;;;;;;;;;;;;;;;;;;;;;;;;;;;;;;;;;;;;;;;;;;;;;;;;;;;;;;;;;;;;;;;;;;;;;;;;;;;;;;;;;;;;;;;;;;;;;;;;;;;;;;;;;;;;;;;;;;;;
2003;[15374] GORDIENKO I. V. (2003);samp. VT-13;;CENTRAL ASIAN FOLDBELT - CENOZOIC/QUATERNARY / BAIKAL RIFT / VITIM PLATEAU;BEISYKHANSK, SW VITIM PLATEAU;53;112;54;113.5;;;OUTCROP;;;SUBAERIAL;VOLCANIC ROCK;TRACHYDACITE;;;;;PALEOZOIC;;;;;WHOLE ROCK;;;;;;;;;;;;;64.5;0.46;;;14.6;;;;;;;;;;2.54;;2.48;2.1;1.74;0.04;;;;;;;5.09;NOT;;;3.19;0.14;;;;;;;;;;;;;;;;;;;;;;;;;;;;;;;;;;;;;;;;;;;;;;;125;60;;;16;37;;;;;;;;100;XRF;;;230;XRF;;;21;XRF;;;240;XRF;;;17;XRF;;;;;;;;;;;;;;540;XRF;;;;;;;;;;;;;;;;;;;;;;;;;;;;;;;;;;;;;;;;;;;;;;;;;;;;;;;;;;;;;;;;;;;;;;;;;;;;;;;;;;;;;;;;;;;;;;;;;;;;;;;;;;;;;;;;;;;;;;;;;;;;;;;;
2002;[15416] VORONTSOV A. A. (2002);samp. KHA3/8;;CENTRAL ASIAN FOLDBELT - CENOZOIC/QUATERNARY / BAIKAL RIFT / DZHIDA VOLCANIC FIELD / KHAMBIN PALEOVOLCANO;DZHIDA RIVER BASIN;50.45;103.6;50.45;103.6;;;OUTCROP;;;SUBAERIAL;VOLCANIC ROCK;TRACHYDACITE;;ALKALINE;116000000;133000000;CRETACEOUS;;;;;WHOLE ROCK;;;;;;;;;;;;;66.16;0.56;;;15.91;;;;;;;;;;3.45;;;0.72;0.36;0.18;;;;;;;5.79;XRF;;;6.52;0.08;;;;;;;;;;;;;;0.23;;;;;;;;;;;;;;;;;;;;;;;;;;;;;;;;;;;;;;;;;;;;;;210;AES;;;51;XRF;;;;;;;1027;XRF;;;68;XRF;;;;;;;;;;4.7;;;;200;XRF;;;146;INAA;;;297;INAA;;;33.6;112;INAA;;;15.9;INAA;;;1.6;9.89;1.31;6.57;1.19;3.22;0.45;2.98;0.46;;;;;;;;;;40;INAA;;;;;;;;;;;;;;;;;;;;;;;;;;;;;;;;;;;;;;;;;;;;;;;;;;;;;;;;;;;;;;;;;;;;;;;;;;;;;;;;;;;;;;;;;
2002;[15416] VORONTSOV A. A. (2002);samp. KHA3/19;;CENTRAL ASIAN FOLDBELT - CENOZOIC/QUATERNARY / BAIKAL RIFT / DZHIDA VOLCANIC FIELD / KHAMBIN PALEOVOLCANO;DZHIDA RIVER BASIN;50.45;103.6;50.45;103.6;;;OUTCROP;;;SUBAERIAL;VOLCANIC ROCK;TRACHYDACITE;;;116000000;133000000;CRETACEOUS;;;;;WHOLE ROCK;;;;;;;;;;;;;66.34;0.62;;;16.51;;;;;;;;;;3.56;;;0.19;0.05;0.05;;;;;;;6.05;XRF;;;5.8;0.11;;;;;;;;;;;;;;0.59;;;;;;;;;;;;;;;;;;;;;;;;;;;;;;;;;;;;;;;;;;;;;;170;AES;;;56;XRF;;;;;;;1071;XRF;;;62;XRF;;;;;;;;;;2.8;;;;220;XRF;;;112;INAA;;;229;INAA;;;25.9;88.7;INAA;;;12.8;INAA;;;1.74;7.38;0.87;4.01;0.67;1.73;0.22;1.44;0.21;;;;;;;;;;29;INAA;;;;;;;;;;;;;;;;;;;;;;;;;;;;;;;;;;;;;;;;;;;;;;;;;;;;;;;;;;;;;;;;;;;;;;;;;;;;;;;;;;;;;;;;;