Year;CITATION;SAMPLE NAME;UNIQUE_ID;LOCATION;LOCATION COMMENT;LATITUDE (MIN.);LONGITUDE (MIN.);LATITUDE (MAX.);LONGITUDE (MAX.);ELEVATION (MIN.);ELEVATION (MAX.);SAMPLING TECHNIQUE;DRILLING DEPTH (MIN.);DRILLING DEPTH (MAX.);LAND/SEA (SAMPLING);ROCK TYPE;ROCK NAME;ROCK TEXTURE;SAMPLE COMMENT;AGE (MIN.);AGE (MAX.);GEOLOGICAL AGE;GEOLOGICAL AGE PREFIX;ERUPTION YEAR;ALTERATION;ALTERATION TYPE;TYPE OF MATERIAL;MINERAL / COMPONENT;SPOT (MINERAL);CRYSTAL;RIM / CORE (MINERAL GRAINS);PRIMARY/SECONDARY;INCLUSION TYPE;SPOT (INCLUSION);MINERAL (INCLUSION);RIM / CORE (INCLUSION);HOSTMINERAL (INCLUSION);HEATING;HEATING TEMPERATURE (?C);SIO2(WT%);TIO2(WT%);ZRO2(WT%);B2O3(WT%);AL2O3(WT%);CR2O3(WT%);LA2O3(WT%);CE2O3(WT%);Y2O3(WT%);V2O3(WT%);NB2O3(WT%);TA2O5(WT%);WO3(WT%);FE2O3T(WT%);FE2O3(WT%);FEOT(WT%);FEO(WT%);CAO(WT%);MGO(WT%);MNO(WT%);BAO(WT%);SRO(WT%);NIO(WT%);ZNO(WT%);CS2O(WT%);RB2O(WT%);K2O(WT%);;;;NA2O(WT%);P2O5(WT%);H2O(WT%);;;;H2OP(WT%);H2OM(WT%);CO2(WT%);C(WT%);F(WT%);CL(WT%);SO2(WT%);SO3(WT%);S(WT%);LOI(WT%);AL(WT%);TI(WT%);FE(WT%);MG(WT%);CA(WT%);K(WT%);NA(WT%);LI(PPM);BE(PPM);B(PPM);C(PPM);F(PPM);NA(PPM);MG(PPM);AL(PPM);P(PPM);S(PPM);CL(PPM);AR40(AT/G);AR40(CCMSTP/G);AR40(MOL/G);AR40(PPB);K(PPM);CA(PPM);SC(PPM);;;;TI(PPM);;;;V(PPM);CR(PPM);MN(PPM);FE(PPM);CO(PPM);NI(PPM);CU(PPM);ZN(PPM);GA(PPM);GE(PPM);AS(PPM);SE(PPM);BR(PPM);RB(PPM): altern. values or methods;;;;SR(PPM): altern. values or methods;;;;Y(PPM): altern. values or methods;;;;ZR(PPM): altern. values or methods;;;;NB(PPM): altern. values or methods;;;;MO(PPM): altern. values or methods;;;;AG(PPM);CD(PPM);IN(PPM);SN(PPM);SB(PPM);TE(PPM);CS(PPM);BA(PPM): altern. values or methods;;;;LA(PPM): altern. values or methods;;;;CE(PPM): altern. values or methods;;;;PR(PPM);ND(PPM): altern. values or methods;;;;SM(PPM): altern. values or methods;;;;EU(PPM);GD(PPM);TB(PPM);DY(PPM);HO(PPM);ER(PPM);TM(PPM);YB(PPM);LU(PPM);HF(PPM);TA(PPM);W(PPM);RE(PPM);AU(PPM);AU(PPB);HG(PPM);HG(PPB);TL(PPM);PB(PPM): altern. values or methods;;;;PB206(PPM);BI(PPM);TH(PPM): altern. values or methods;;;;U(PPM);ND143_ND144;ND143_ND144_INI;EPSILON_ND;EPSILON_ND_INI;SM147_ND144;SR87_SR86;SR87_SR86_INI;EPSILON_SR;EPSILON_SR_INI;RB87_SR86;PB206_PB204;PB206_PB204_INI;PB206_PB207;PB206_PB208;PB207_PB204;PB207_PB204_INI;PB207_PB206;PB208_PB204;PB208_PB204_INI;PB208_PB206;HF176_HF177;HF176_HF177_INI;EPSILON_HF_INI;LU176_HF177;YB176_HF177;AR36_AR39;AR36_AR40;AR37_AR39;AR38_AR39;AR39_AR40;AR40_AR36;AR40_AR39;PB206_U238;PB207_U235;PB208_TH232;TH232_PB204;TH232_U238;U235_PB204;U238_PB204;U238_PB206;D7LI(VS LSVEC);D18O(PER MIL);D18O(VS SMOW);D18O(VS VSMOW);D56FE(VS IRMM-014);D57FE(VS IRMM-014);DD(VS SMOW);ALBITE(MOL%);ANORTHITE(MOL%);CA OLIVINE(MOL%);ENSTATITE(MOL%);FAYALITE(MOL%);FORSTERITE(MOL%);FERROSILITE(MOL%);ORTHOCLASE(MOL%);TEPHROITE(MOL%);ULVOSPINEL(MOL%);WOLLASTONITE(MOL%);AGE(KA): altern. values or methods;;;;AGE(MA): altern. values or methods;;;;;;;;AGE_PB207_PB206(MA);AGE_PB207_U235(MA);AGE_PB206_U238(MA): altern. values or methods;;;;;;AGE_PB208_TH232(MA);
2016;[20008] GAO XIN-YU (2016);samp. JGT-96;;CENTRAL ASIAN FOLDBELT - MESOZOIC / CHINA - MESOZOIC / ANHUI PROVINCE;JINGANGTAI, NORTH HUAIYANG;31.75;115.75;31.75;115.75;;;OUTCROP;;;SUBAERIAL;VOLCANIC ROCK;TRACHYDACITE;;;;;CRETACEOUS;LOWER;;;;MINERAL / COMPONENT (INCL. GROUNDMASS);ZIRCON;JGT-96-8;;;PRIMARY;;;;;;;;;;;;;;;;;;;;;;;;;;;;;;;;;;;;;;;;;;;;;;;;;;;;;;;;;;;;;;;;;;;;;;;;;;;;;;;;;;;;;;;;;;;;;;;;;;;;;;;;;;;;;;;;;;;;;;;;;;;;;;;;;;;;;;;;;;;;;;;;;;;;;;;;;;;;;;;;;;;;;;;;;;;;;;;321;ICPMS_LA;;;190;;;;;;;;;;;;;;;;;0.0473;;;;;;;;;;;;;;;;0.0197;0.142;;;;;;;;;;;;;;;;;;;;;;;;;;;;;;;;;;;;;306;135;126;PB206_U238 AGE;;;;;;
2016;[20008] GAO XIN-YU (2016);samp. JGT-96;;CENTRAL ASIAN FOLDBELT - MESOZOIC / CHINA - MESOZOIC / ANHUI PROVINCE;JINGANGTAI, NORTH HUAIYANG;31.75;115.75;31.75;115.75;;;OUTCROP;;;SUBAERIAL;VOLCANIC ROCK;TRACHYDACITE;;;;;CRETACEOUS;LOWER;;;;MINERAL / COMPONENT (INCL. GROUNDMASS);ZIRCON;JGT-96-9;;;PRIMARY;;;;;;;;;;;;;;;;;;;;;;;;;;;;;;;;;;;;;;;;;;;;;;;;;;;;;;;;;;;;;;;;;;;;;;;;;;;;;;;;;;;;;;;;;;;;;;;;;;;;;;;;;;;;;;;;;;;;;;;;;;;;;;;;;;;;;;;;;;;;;;;;;;;;;;;;;;;;;;;;;;;;;;;;;;;;;;;452;ICPMS_LA;;;244;;;;;;;;;;;;;;;;;0.05;;;;;;;;;;;;;;;;0.02;0.139;;;;;;;;;;;;;;;;;;;;;;;;;;;;;;;;;;;;;232;132;128;PB206_U238 AGE;;;;;;
2016;[20008] GAO XIN-YU (2016);samp. JGT-96;;CENTRAL ASIAN FOLDBELT - MESOZOIC / CHINA - MESOZOIC / ANHUI PROVINCE;JINGANGTAI, NORTH HUAIYANG;31.75;115.75;31.75;115.75;;;OUTCROP;;;SUBAERIAL;VOLCANIC ROCK;TRACHYDACITE;;;;;CRETACEOUS;LOWER;;;;MINERAL / COMPONENT (INCL. GROUNDMASS);ZIRCON;JGT-96-10;;;PRIMARY;;;;;;;;;;;;;;;;;;;;;;;;;;;;;;;;;;;;;;;;;;;;;;;;;;;;;;;;;;;;;;;;;;;;;;;;;;;;;;;;;;;;;;;;;;;;;;;;;;;;;;;;;;;;;;;;;;;;;;;;;;;;;;;;;;;;;;;;;;;;;;;;;;;;;;;;;;;;;;;;;;;;;;;;;;;;;;;413;ICPMS_LA;;;224;;;;;;;;;;;;;;;;;0.0516;;;;;;;;;;;;;;;;0.02;0.147;;;;;;;;;;;;;;;;;;;;;;;;;;;;;;;;;;;;;346;139;128;PB206_U238 AGE;;;;;;
2016;[20008] GAO XIN-YU (2016);samp. JGT-96;;CENTRAL ASIAN FOLDBELT - MESOZOIC / CHINA - MESOZOIC / ANHUI PROVINCE;JINGANGTAI, NORTH HUAIYANG;31.75;115.75;31.75;115.75;;;OUTCROP;;;SUBAERIAL;VOLCANIC ROCK;TRACHYDACITE;;;;;CRETACEOUS;LOWER;;;;MINERAL / COMPONENT (INCL. GROUNDMASS);ZIRCON;JGT-96-11;;;PRIMARY;;;;;;;;;;;;;;;;;;;;;;;;;;;;;;;;;;;;;;;;;;;;;;;;;;;;;;;;;;;;;;;;;;;;;;;;;;;;;;;;;;;;;;;;;;;;;;;;;;;;;;;;;;;;;;;;;;;;;;;;;;;;;;;;;;;;;;;;;;;;;;;;;;;;;;;;;;;;;;;;;;;;;;;;;;;;;;;235;ICPMS_LA;;;342;;;;;;;;;;;;;;;;;0.0516;;;;;;;;;;;;;;;;0.0199;0.139;;;;;;;;;;;;;;;;;;;;;;;;;;;;;;;;;;;;;228;132;127;PB206_U238 AGE;;;;;;
2016;[20008] GAO XIN-YU (2016);samp. JGT-96;;CENTRAL ASIAN FOLDBELT - MESOZOIC / CHINA - MESOZOIC / ANHUI PROVINCE;JINGANGTAI, NORTH HUAIYANG;31.75;115.75;31.75;115.75;;;OUTCROP;;;SUBAERIAL;VOLCANIC ROCK;TRACHYDACITE;;;;;CRETACEOUS;LOWER;;;;MINERAL / COMPONENT (INCL. GROUNDMASS);ZIRCON;JGT-96-12;;;PRIMARY;;;;;;;;;;;;;;;;;;;;;;;;;;;;;;;;;;;;;;;;;;;;;;;;;;;;;;;;;;;;;;;;;;;;;;;;;;;;;;;;;;;;;;;;;;;;;;;;;;;;;;;;;;;;;;;;;;;;;;;;;;;;;;;;;;;;;;;;;;;;;;;;;;;;;;;;;;;;;;;;;;;;;;;;;;;;;;;201;ICPMS_LA;;;278;;;;;;;;;;;;;;;;;0.0485;;;;;;;;;;;;;;;;0.0193;0.129;;;;;;;;;;;;;;;;;;;;;;;;;;;;;;;;;;;;;122;123;124;PB206_U238 AGE;;;;;;
2016;[20008] GAO XIN-YU (2016);samp. JGT-96;;CENTRAL ASIAN FOLDBELT - MESOZOIC / CHINA - MESOZOIC / ANHUI PROVINCE;JINGANGTAI, NORTH HUAIYANG;31.75;115.75;31.75;115.75;;;OUTCROP;;;SUBAERIAL;VOLCANIC ROCK;TRACHYDACITE;;;;;CRETACEOUS;LOWER;;;;MINERAL / COMPONENT (INCL. GROUNDMASS);ZIRCON;JGT-96-13;;;PRIMARY;;;;;;;;;;;;;;;;;;;;;;;;;;;;;;;;;;;;;;;;;;;;;;;;;;;;;;;;;;;;;;;;;;;;;;;;;;;;;;;;;;;;;;;;;;;;;;;;;;;;;;;;;;;;;;;;;;;;;;;;;;;;;;;;;;;;;;;;;;;;;;;;;;;;;;;;;;;;;;;;;;;;;;;;;;;;;;;361;ICPMS_LA;;;199;;;;;;;;;;;;;;;;;0.0485;;;;;;;;;;;;;;;;0.02;0.134;;;;;;;;;;;;;;;;;;;;;;;;;;;;;;;;;;;;;132;128;128;PB206_U238 AGE;;;;;;
2016;[20008] GAO XIN-YU (2016);samp. JGT-96;;CENTRAL ASIAN FOLDBELT - MESOZOIC / CHINA - MESOZOIC / ANHUI PROVINCE;JINGANGTAI, NORTH HUAIYANG;31.75;115.75;31.75;115.75;;;OUTCROP;;;SUBAERIAL;VOLCANIC ROCK;TRACHYDACITE;;;;;CRETACEOUS;LOWER;;;;MINERAL / COMPONENT (INCL. GROUNDMASS);ZIRCON;JGT-96-14;;;PRIMARY;;;;;;;;;;;;;;;;;;;;;;;;;;;;;;;;;;;;;;;;;;;;;;;;;;;;;;;;;;;;;;;;;;;;;;;;;;;;;;;;;;;;;;;;;;;;;;;;;;;;;;;;;;;;;;;;;;;;;;;;;;;;;;;;;;;;;;;;;;;;;;;;;;;;;;;;;;;;;;;;;;;;;;;;;;;;;;;254;ICPMS_LA;;;158;;;;;;;;;;;;;;;;;0.0519;;;;;;;;;;;;;;;;0.0197;0.137;;;;;;;;;;;;;;;;;;;;;;;;;;;;;;;;;;;;;213;130;126;PB206_U238 AGE;;;;;;
2016;[20008] GAO XIN-YU (2016);samp. JGT-96;;CENTRAL ASIAN FOLDBELT - MESOZOIC / CHINA - MESOZOIC / ANHUI PROVINCE;JINGANGTAI, NORTH HUAIYANG;31.75;115.75;31.75;115.75;;;OUTCROP;;;SUBAERIAL;VOLCANIC ROCK;TRACHYDACITE;;;;;CRETACEOUS;LOWER;;;;MINERAL / COMPONENT (INCL. GROUNDMASS);ZIRCON;JGT-96-15;;;PRIMARY;;;;;;;;;;;;;;;;;;;;;;;;;;;;;;;;;;;;;;;;;;;;;;;;;;;;;;;;;;;;;;;;;;;;;;;;;;;;;;;;;;;;;;;;;;;;;;;;;;;;;;;;;;;;;;;;;;;;;;;;;;;;;;;;;;;;;;;;;;;;;;;;;;;;;;;;;;;;;;;;;;;;;;;;;;;;;;;480;ICPMS_LA;;;274;;;;;;;;;;;;;;;;;0.0525;;;;;;;;;;;;;;;;0.0193;0.141;;;;;;;;;;;;;;;;;;;;;;;;;;;;;;;;;;;;;320;134;123;PB206_U238 AGE;;;;;;
2016;[20008] GAO XIN-YU (2016);samp. JGT-96;;CENTRAL ASIAN FOLDBELT - MESOZOIC / CHINA - MESOZOIC / ANHUI PROVINCE;JINGANGTAI, NORTH HUAIYANG;31.75;115.75;31.75;115.75;;;OUTCROP;;;SUBAERIAL;VOLCANIC ROCK;TRACHYDACITE;;;;;CRETACEOUS;LOWER;;;;MINERAL / COMPONENT (INCL. GROUNDMASS);ZIRCON;JGT-96-16;;;PRIMARY;;;;;;;;;;;;;;;;;;;;;;;;;;;;;;;;;;;;;;;;;;;;;;;;;;;;;;;;;;;;;;;;;;;;;;;;;;;;;;;;;;;;;;;;;;;;;;;;;;;;;;;;;;;;;;;;;;;;;;;;;;;;;;;;;;;;;;;;;;;;;;;;;;;;;;;;;;;;;;;;;;;;;;;;;;;;;;;198;ICPMS_LA;;;216;;;;;;;;;;;;;;;;;0.052;;;;;;;;;;;;;;;;0.0202;0.144;;;;;;;;;;;;;;;;;;;;;;;;;;;;;;;;;;;;;272;136;129;PB206_U238 AGE;;;;;;
2002;[20154] ZHAO TAIPING (2002);samp. JY-6;371805;CENTRAL ASIAN FOLDBELT - PROTEROZOIC / CHINA - PROTEROZOIC / HENAN PROVINCE / XIONG^ER VOLCANIC PROVINCE - XUSHAN FORMATION;QINLING MOUNTAINS, XIONG^ER VOLCANIC PROVINCE, NORTH CHINA CRATON;34;111;35;113;;;OUTCROP;;;SUBAERIAL;VOLCANIC ROCK;TRACHYDACITE;;;;;PROTEROZOIC;;;;;WHOLE ROCK;;;;;;;;;;;;;64.3;1.09;;;13.3;;;;;;;;;;6.46;;1.68;1.58;0.98;0.06;;;;;;;5.25;XRF;;;3.18;0.38;;;;;1.68;;0.08;;;;;;;;;;;;;;;;;;;;;;;;;;;;;;;;8;ICPMS;;;;;;;95;8;;;14;6;;;;;;;;156;ICPMS;;;160;ICPMS;;;38;ICPMS;;;391;ICPMS;;;17.1;ICPMS;;;;;;;;;;;;;;1766;ICPMS;;;76.1;ICPMS;;;153;ICPMS;;;16.8;70.7;ICPMS;;;12.1;ICPMS;;;2.68;9.24;1.53;7.37;1.52;4;0.68;3.97;0.59;9.19;1.01;;;;;;;;;;;;;;9.6;ICPMS;;;1.23;;;;;;;;;;;;;;;;;;;;;;;;;;;;;;;;;;;;;;;;;;;;;;;;;;;;;;;;;;;;;;;;;;;;;;;;;;;;;;;;
2002;[20154] ZHAO TAIPING (2002);samp. WF-13;474331;CENTRAL ASIAN FOLDBELT - PROTEROZOIC / CHINA - PROTEROZOIC / HENAN PROVINCE / XIONG^ER VOLCANIC PROVINCE - JIDANPING FORMATION;QINLING MOUNTAINS, XIONG^ER VOLCANIC PROVINCE, NORTH CHINA CRATON;34;111;35;113;;;OUTCROP;;;SUBAERIAL;VOLCANIC ROCK;TRACHYDACITE;;;;;PROTEROZOIC;;;;;WHOLE ROCK;;;;;;;;;;;;;67.3;0.91;;;12.5;;;;;;;;;;4.805;;1.71;1.64;0.6;0.08;;;;;;;4.85;XRF;;;3.105;0.24;;;;;1.23;;0.83;;;;;;;;;;;;;;;;;;;;;;;;;;;;;;;;9;ICPMS;;;;;;;36;2;;;9;5;;;;;;;;108;ICPMS;;;103;ICPMS;;;54;ICPMS;;;457;ICPMS;;;17.6;ICPMS;;;;;;;;;;;;;;1979;ICPMS;;;71.9;ICPMS;;;157;ICPMS;;;15.5;66.5;ICPMS;;;12;ICPMS;;;2.7;10.9;1.92;10.6;2.16;6.08;0.98;5.98;0.93;10.63;1.31;;;;;;;;;;;;;;10.23;ICPMS;;;1.34;;;;;;;;;;;;;;;;;;;;;;;;;;;;;;;;;;;;;;;;;;;;;;;;;;;;;;;;;;;;;;;;;;;;;;;;;;;;;;;;
2016;[20220] MAZHARI S. A. (2016);samp. S-6;;ANATOLIA-IRAN BELT / IRAN / SABZEVAR ZONE;;36;58;36;58;;;OUTCROP;;;SUBAERIAL;VOLCANIC ROCK;TRACHYDACITE;;;;;QUATERNARY;;;;;WHOLE ROCK;;;;;;;;;;;;;60.08;0.51;;;19.86;;;;;;;;;;;3.04;;4.51;2.91;0.06;;;;;;;1.62;XRF;;;5.4;0.17;;;;;;;;;;;;;;1.86;;;;;;;;15;;;;;;;;;;;;;;;;;6.9;ICPMS;;;;;;;85;8;;;8;11;78;34;;;;;;29;ICPMS;;;722;ICPMS;;;7;ICPMS;;;45;ICPMS;;;16.3;ICPMS;;;0.89;ICPMS;;;;;;;;;;278;ICPMS;;;16.13;ICPMS;;;32.1;ICPMS;;;3.41;16.9;ICPMS;;;2.99;ICPMS;;;1.05;4.11;0.25;2.41;;1.22;0;0.6;0.13;1.2;1.07;;;;;;;0.12;43;ICPMS;;;;;3.19;ICPMS;;;0.7;;;;;;;;;;;;;;;;;;;;;;;;;;;;;;;;;;;;;;;;;;;;;;;;;;;;;;;;;;;;;;;;;;;;;;;;;;;;;;;;
2016;[20220] MAZHARI S. A. (2016);samp. S-3;;ANATOLIA-IRAN BELT / IRAN / SABZEVAR ZONE;;36;58;36;58;;;OUTCROP;;;SUBAERIAL;VOLCANIC ROCK;TRACHYDACITE;;;;;QUATERNARY;;;;;WHOLE ROCK;;;;;;;;;;;;;61.58;0.38;;;19.86;;;;;;;;;;;2.39;;3.21;2.15;0.05;;;;;;;1.63;XRF;;;5.41;0.13;;;;;;;;;;;;;;2.92;;;;;;;;16.15;;;;;;;;;;;;;;;;;2.3;ICPMS;;;;;;;13;7;;;4;2;27;10;;;;;;38;ICPMS;;;633;ICPMS;;;5.2;ICPMS;;;17;ICPMS;;;14.06;ICPMS;;;3.31;ICPMS;;;;;;;;;;352;ICPMS;;;17.1;ICPMS;;;34.56;ICPMS;;;3.41;16.15;ICPMS;;;2.55;ICPMS;;;0.92;3.26;0.21;1.8;;0.82;0;0.38;0.1;0.46;1.06;;;;;;;0.19;45.6;ICPMS;;;;;4.04;ICPMS;;;0.76;;;;;;;;;;;;;;;;;;;;;;;;;;;;;;;;;;;;;;;;;;;;;;;;;;;;;;;;;;;;;;;;;;;;;;;;;;;;;;;;
2016;[20220] MAZHARI S. A. (2016);samp. S-4;;ANATOLIA-IRAN BELT / IRAN / SABZEVAR ZONE;;36;58;36;58;;;OUTCROP;;;SUBAERIAL;VOLCANIC ROCK;TRACHYDACITE;;;;;QUATERNARY;;;;;WHOLE ROCK;;;;;;;;;;;;;63.71;0.29;;;20.63;;;;;;;;;;;2.11;;3.26;0.84;0.04;;;;;;;1.81;XRF;;;5.42;0.13;;;;;;;;;;;;;;1.77;;;;;;;;17;;;;;;;;;;;;;;;;;2.4;ICPMS;;;;;;;14;7;;;0;2;28;10;;;;;;40;ICPMS;;;666;ICPMS;;;5.4;ICPMS;;;18;ICPMS;;;14.8;ICPMS;;;3.48;ICPMS;;;;;;;;;;371;ICPMS;;;18.02;ICPMS;;;36.08;ICPMS;;;3.59;17.02;ICPMS;;;2.71;ICPMS;;;0.97;3.4;0.22;1.89;;0.86;0;0.4;0.11;0.48;1.1;;;;;;;0.2;48;ICPMS;;;;;4.25;ICPMS;;;0.8;;;;;;;;;;;;;;;;;;;;;;;;;;;;;;;;;;;;;;;;;;;;;;;;;;;;;;;;;;;;;;;;;;;;;;;;;;;;;;;;
2016;[20322] OYAN V.(2016)  [GeoReM [9713] ];samp. 07VAN-E16;;ANATOLIA-IRAN BELT / TURKEY / EASTERN ANATOLIAN VOLCANIC BELT / ETRUSK / ETRUSK DIKE UNIT;MAIN CRATER;39.2;43;39.2;43;;;OUTCROP;;;SUBAERIAL;VOLCANIC ROCK;TRACHYDACITE;;;;;PLIOCENE;;;;;WHOLE ROCK;;;;;;;;;;;;;64.35;1.06;;;16.47;;;;;;;;;3.34;;;;2.48;0.29;0.03;;;;;;;4.18;ICPOES;;;4.18;0.32;;;;;;;;;;;;;;3;;;;;;;;;;;;;;;;;;;;;;;;;9;ICPMS;;;;;;;70;;;;5.2;4.4;;;17.9;;;;;136.5;ICPMS;;;276.9;ICPMS;;;33.3;ICPMS;;;388.4;ICPMS;;;32.4;ICPMS;;;;;;;;;;;;;6.2;703;ICPMS;;;56;ICPMS;;;109.6;ICPMS;;;11.9;43.4;ICPMS;;;7.48;ICPMS;;;1.6;6.19;1.02;5.95;1.14;3.4;0.51;3.22;0.48;9.9;2;;;;;;;;2.8;ICPMS;;;;;22.3;ICPMS;;;6.2;;;;;;;;;;;;;;;;;;;;;;;;;;;;;;;;;;;;;;;;;;;;;;;;;;;;;;;;;;;;;;;;;;;;;;;;;;;;;;;;
2016;[20322] OYAN V.(2016)  [GeoReM [9713] ];samp. 07VAN-E17;;ANATOLIA-IRAN BELT / TURKEY / EASTERN ANATOLIAN VOLCANIC BELT / ETRUSK / ETRUSK DIKE UNIT;MAIN CRATER;39.2;43;39.2;43;;;OUTCROP;;;SUBAERIAL;VOLCANIC ROCK;TRACHYDACITE;;;;;PLIOCENE;;;;;WHOLE ROCK;;;;;;;;;;;;;60.77;1.01;;;17.43;;;;;;;;;4.39;;;;3.2;1.39;0.08;;;;;;;3.03;ICPOES;;;4.17;0.37;;;;;;;;;;;;;;3.9;;;;;;;;;;;;;;;;;;;;;;;;;12;ICPMS;;;;;;;98;;;;21.6;15.1;;;16.8;;;;;76.9;ICPMS;;;341.2;ICPMS;;;61;ICPMS;;;317.2;ICPMS;;;26.6;ICPMS;;;;;;;;;;;;;1.4;654;ICPMS;;;59.1;ICPMS;;;118.4;ICPMS;;;12.92;51.1;ICPMS;;;9.17;ICPMS;;;2.03;9.33;1.49;8.9;1.72;4.86;0.75;4.28;0.69;7.9;1.5;;;;;;;;2.9;ICPMS;;;;;14.2;ICPMS;;;4;;;;;;;;;;;;;;;;;;;;;;;;;;;;;;;;;;;;;;;;;;;;7.1;;;;;;;;;;;;;;;;;;;;;;;;;;;;;;;;;;;;
2016;[20322] OYAN V.(2016)  [GeoReM [9713] ];samp. V-E-97;;ANATOLIA-IRAN BELT / TURKEY / EASTERN ANATOLIAN VOLCANIC BELT / ETRUSK / ETRUSK ZIYARETTEPE UNIT;ZIYARETTEPE;39.2;43;39.2;43;;;OUTCROP;;;SUBAERIAL;VOLCANIC ROCK;TRACHYDACITE;;;;;PLIOCENE;;;;;WHOLE ROCK;;;;;;;;;;;;;67.34;0.52;;;15.1;;;;;;;;;2.9;;;;2.08;0.83;0.07;;;;;;;4.95;ICPOES;;;3.63;0.19;;;;;;;;;;;;;;2.2;;;;;;;;;;;;;;;;;;;;;;;;;7;ICPMS;;;;;;;35;;;;3.8;2.2;;;17.9;;;;;158.7;ICPMS;;;198.5;ICPMS;;;33.7;ICPMS;;;283.6;ICPMS;;;24.4;ICPMS;;;;;;;;;;;;;7.3;685;ICPMS;;;53.2;ICPMS;;;103.7;ICPMS;;;11.76;41.8;ICPMS;;;6.91;ICPMS;;;1.36;6.23;0.98;5.55;1.08;3.24;0.48;3.38;0.48;7.6;1.6;;;;;;;;0.5;ICPMS;;;;;19.9;ICPMS;;;5.7;;;;;;;;;;;;;;;;;;;;;;;;;;;;;;;;;;;;;;;;;;;;;;;;;;;;;;;;;;;;;;;;;;;;;;;;;;;;;;;;
2016;[20322] OYAN V.(2016)  [GeoReM [9713] ];samp. V-E-98;;ANATOLIA-IRAN BELT / TURKEY / EASTERN ANATOLIAN VOLCANIC BELT / ETRUSK / ETRUSK ZIYARETTEPE UNIT;ZIYARETTEPE;39.2;43;39.2;43;;;OUTCROP;;;SUBAERIAL;VOLCANIC ROCK;TRACHYDACITE;;;;;PLIOCENE;;;;;WHOLE ROCK;;;;;;;;;;;;;67.38;0.55;;;15.95;;;;;;;;;3.09;;;;1.91;0.69;0.05;;;;;;;4.95;ICPOES;;;3.9;0.28;;;;;;;;;;;;;;1;;;;;;;;;;;;;;;;;;;;;;;;;7;ICPMS;;;;;;;36;;;;3.9;2.8;;;18.9;;;;;167.4;ICPMS;;;190.2;ICPMS;;;36.5;ICPMS;;;342;ICPMS;;;25.5;ICPMS;;;;;;;;;;;;;5.5;734;ICPMS;;;56.3;ICPMS;;;112.2;ICPMS;;;12.56;44.5;ICPMS;;;7.61;ICPMS;;;1.44;6.66;1.06;5.91;1.17;3.47;0.53;3.52;0.53;8.8;1.7;;;;;;;;2.7;ICPMS;;;;;21.5;ICPMS;;;6.1;;;;;;;;;;;;;;;;;;;;;;;;;;;;;;;;;;;;;;;;;;;;;;;;;;;;;;;;;;;;;;;;;;;;;;;;;;;;;;;;
2016;[20322] OYAN V.(2016)  [GeoReM [9713] ];samp. V-E-121;;ANATOLIA-IRAN BELT / TURKEY / EASTERN ANATOLIAN VOLCANIC BELT / ETRUSK / ETRUSK ZIYARETTEPE UNIT;ZIYARETTEPE;39.2;43;39.2;43;;;OUTCROP;;;SUBAERIAL;VOLCANIC ROCK;TRACHYDACITE;;;;;PLIOCENE;;;;;WHOLE ROCK;;;;;;;;;;;;;67.33;0.49;;;15.25;;;;;;;;;2.9;;;;2.05;0.81;0.07;;;;;;;4.74;ICPOES;;;3.86;0.17;;;;;;;;;;;;;;2.2;;;;;;;;;;;;;;;;;;;;;;;;;7;ICPMS;;;;;;;32;;;;3.7;1.5;;;17.4;;;;;163.5;ICPMS;;;199.1;ICPMS;;;30.4;ICPMS;;;274.4;ICPMS;;;22.5;ICPMS;;;;;;;;;;;;;6.6;692;ICPMS;;;49.7;ICPMS;;;98.3;ICPMS;;;10.58;39;ICPMS;;;6.99;ICPMS;;;1.29;5.69;0.91;5.55;1.05;3.02;0.47;3.01;0.46;6.9;1.5;;;;;;;;0.5;ICPMS;;;;;20.9;ICPMS;;;6;;;;;;;;;;;;;;;;;;;;;;;;;;;;;;;;;;;;;;;;;;;;;;;;;;;;;;;;;;;;;;;;;;;;;;;;;;;;;;;;
2016;[20322] OYAN V.(2016)  [GeoReM [9713] ];samp. V-E-121;;ANATOLIA-IRAN BELT / TURKEY / EASTERN ANATOLIAN VOLCANIC BELT / ETRUSK / ETRUSK ZIYARETTEPE UNIT;ZIYARETTEPE;39.2;43;39.2;43;;;OUTCROP;;;SUBAERIAL;VOLCANIC ROCK;TRACHYDACITE;;;;;PLIOCENE;;;;;MINERAL / COMPONENT (INCL. GROUNDMASS);GROUNDMASS;;;;PRIMARY;;;;;;;;;;;;;;;;;;;;;;;;;;;;;;;;;;;;;;;;;;;;;;;;;;;;;;;;;;;4.23;;;;;;;;;;;;;;;;1.053;;;;;;;;;;;;;;;;;;;;;;;;;;;;;;;;;;;;;;;;;;;;;;;;;;;;;;;;;;;;;;;;;;;;;;;;;;;;;;;;;;;;;;;;;;;;;;;;;;;;;;;;;;;;;;;;;;;;;;;;;;;;;;;;;;;;;;;;;;;;;;;;;;;;;;;;;;;;;;;;;;;;;;;3.6;K-AR;;;;;;;;;;;;;;;;
2016;[20322] OYAN V.(2016)  [GeoReM [9713] ];samp. 07VAN-E17;;ANATOLIA-IRAN BELT / TURKEY / EASTERN ANATOLIAN VOLCANIC BELT / ETRUSK / ETRUSK DIKE UNIT;MAIN CRATER;39.2;43;39.2;43;;;OUTCROP;;;SUBAERIAL;VOLCANIC ROCK;TRACHYDACITE;;;;;PLIOCENE;;;;;MINERAL / COMPONENT (INCL. GROUNDMASS);GROUNDMASS;;;;PRIMARY;;;;;;;;;;;;;;;;;;;;;;;;;;;;;;;;;;;;;;;;;;;;;;;;;;;;;;;;;;;;;;;;;;;;;;;;;;;;;;;;;;;;;;;;;;;;;;;;;;;;;;;;;;;;;;;;;;;;;;;;;;;;;;;;;;;;;;;;;;;;;;;;;;;;;;;;;;;;;;;;;;;;;;;;;;;;;;;;;;;;0.512676;;;;0.1154;0.705894;;;;0.839;;18.9341;;;;15.6756;;;39.0237;;;;;;;;;;;;;;;;;;;;;;;;;;;;;;;;;;;;;;;;;;;;;;;;;;;;;;;;;;;;;
2016;[20344] FODOR R. V. (2016);samp. SD-5;;BASIN AND RANGE - GREAT BASIN / BASIN AND RANGE / ARIZONA / GOLDFIELD-SUPERSTITION VOLCANIC FIELD;SIPHON DRAW;33.4425;-111.4622;33.4425;-111.4622;;;OUTCROP;;;SUBAERIAL;VOLCANIC ROCK;TRACHYDACITE;;;;;MIOCENE;;;;;WHOLE ROCK;;;;;;;;;;;;;63.78;0.67;;;16.47;;;;;;;;;3.92;;;;1.23;1.24;0.05;;;;;;;6.72;XRF;;;3.77;0.27;;;;;;;;;;;;;;1.32;;;;;;;;;;;;;;;;;;;;;;;;;5.2;ICPMS;;;;;;;;;;;;5;;;;;;;;135;ICPMS;;;236;ICPMS;;;11.2;ICPMS;;;87;ICPMS;;;20.2;ICPMS;;;;;;;;;;;;;;1658;ICPMS;;;28.6;ICPMS;;;54.3;ICPMS;;;5.7;23.4;ICPMS;;;3.5;ICPMS;;;0.7;2.8;0.4;2.4;0.4;1.2;0.2;1.3;0.2;2.18;1.2;;;;;;;;;;;;;;5.1;ICPMS;;;1.8;;;;;;;;;;;;;;;;;;;;;;;;;;;;;;;;;;;;;;;;;;;;;;;;;;;;;;;;;;;;;;;;;;;;;;;;;;;;;;;;
2016;[20344] FODOR R. V. (2016);samp. SD-5;;BASIN AND RANGE - GREAT BASIN / BASIN AND RANGE / ARIZONA / GOLDFIELD-SUPERSTITION VOLCANIC FIELD;SIPHON DRAW;33.4425;-111.4622;33.4425;-111.4622;;;OUTCROP;;;SUBAERIAL;VOLCANIC ROCK;TRACHYDACITE;;;;;MIOCENE;;;;;MINERAL / COMPONENT (INCL. GROUNDMASS);BIOTITE;;;;PRIMARY;;;;;;;;37.6;4.1;;;13.9;;;;;;;;;;;17.3;;0.13;13.9;0.15;;;;;;;8.8;EMP (EPMA);;;0.18;;;;;;;;;;;;;;;;;;;;;;;;;;;;;;;;;;;;;;;;;;;;;;;;;;;;;;;;;;;;;;;;;;;;;;;;;;;;;;;;;;;;;;;;;;;;;;;;;;;;;;;;;;;;;;;;;;;;;;;;;;;;;;;;;;;;;;;;;;;;;;;;;;;;;;;;;;;;;;;;;;;;;;;;;;;;;;;;;;;;;;;;;;;;;;;;;;;;;;;;;;;;;;;;;;;;;;;;;;;;;
2016;[20344] FODOR R. V. (2016);samp. SD-5;;BASIN AND RANGE - GREAT BASIN / BASIN AND RANGE / ARIZONA / GOLDFIELD-SUPERSTITION VOLCANIC FIELD;SIPHON DRAW;33.4425;-111.4622;33.4425;-111.4622;;;OUTCROP;;;SUBAERIAL;VOLCANIC ROCK;TRACHYDACITE;;;;;MIOCENE;;;;;MINERAL / COMPONENT (INCL. GROUNDMASS);PLAGIOCLASE;;PHENOCRYST;;PRIMARY;;;;;;;;66.2;;;;21;;;;;;;;;;;0.02;;0.93;;;;;;;;;0.18;EMP (EPMA);;;11.4;;;;;;;;;;;;;;;;;;;;;;;;;;;;;;;;;;;;;;;;;;;;;;;;;;;;;;;;;;;;;;;;;;;;;;;;;;;;;;;;;;;;;;;;;;;;;;;;;;;;;;;;;;;;;;;;;;;;;;;;;;;;;;;;;;;;;;;;;;;;;;;;;;;;;;;;;;;;;;;;;;;;;;;;;;;;;;;;;;;;;;;;;;;;;94.5;4.3;;;;;;1.2;;;;;;;;;;;;;;;;;;;;;;;;;
2016;[20344] FODOR R. V. (2016);samp. SD-5;;BASIN AND RANGE - GREAT BASIN / BASIN AND RANGE / ARIZONA / GOLDFIELD-SUPERSTITION VOLCANIC FIELD;SIPHON DRAW;33.4425;-111.4622;33.4425;-111.4622;;;OUTCROP;;;SUBAERIAL;VOLCANIC ROCK;TRACHYDACITE;;;;;MIOCENE;;;;;MINERAL / COMPONENT (INCL. GROUNDMASS);PLAGIOCLASE;;PHENOCRYST;;PRIMARY;;;;;;;;63.6;;;;18.9;;;;;;;;;;;0.09;;0.04;;;;;;;;;16.2;EMP (EPMA);;;0.25;;;;;;;;;;;;;;;;;;;;;;;;;;;;;;;;;;;;;;;;;;;;;;;;;;;;;;;;;;;;;;;;;;;;;;;;;;;;;;;;;;;;;;;;;;;;;;;;;;;;;;;;;;;;;;;;;;;;;;;;;;;;;;;;;;;;;;;;;;;;;;;;;;;;;;;;;;;;;;;;;;;;;;;;;;;;;;;;;;;;;;;;;;;;;1.8;0.2;;;;;;98;;;;;;;;;;;;;;;;;;;;;;;;;