Year;CITATION;SAMPLE NAME;UNIQUE_ID;LOCATION;LOCATION COMMENT;LATITUDE (MIN.);LONGITUDE (MIN.);LATITUDE (MAX.);LONGITUDE (MAX.);ELEVATION (MIN.);ELEVATION (MAX.);SAMPLING TECHNIQUE;DRILLING DEPTH (MIN.);DRILLING DEPTH (MAX.);LAND/SEA (SAMPLING);ROCK TYPE;ROCK NAME;ROCK TEXTURE;SAMPLE COMMENT;AGE (MIN.);AGE (MAX.);GEOLOGICAL AGE;GEOLOGICAL AGE PREFIX;ERUPTION YEAR;ALTERATION;ALTERATION TYPE;TYPE OF MATERIAL;MINERAL / COMPONENT;SPOT (MINERAL);CRYSTAL;RIM / CORE (MINERAL GRAINS);PRIMARY/SECONDARY;INCLUSION TYPE;SPOT (INCLUSION);MINERAL (INCLUSION);RIM / CORE (INCLUSION);HOSTMINERAL (INCLUSION);HEATING;HEATING TEMPERATURE (?C);SIO2(WT%);TIO2(WT%);ZRO2(WT%);B2O3(WT%);AL2O3(WT%);CR2O3(WT%);LA2O3(WT%);CE2O3(WT%);Y2O3(WT%);V2O3(WT%);NB2O3(WT%);TA2O5(WT%);WO3(WT%);FE2O3T(WT%);FE2O3(WT%);FEOT(WT%);FEO(WT%);CAO(WT%);MGO(WT%);MNO(WT%);BAO(WT%);SRO(WT%);NIO(WT%);ZNO(WT%);CS2O(WT%);RB2O(WT%);K2O(WT%);;;;NA2O(WT%);P2O5(WT%);H2O(WT%);;;;H2OP(WT%);H2OM(WT%);CO2(WT%);C(WT%);F(WT%);CL(WT%);SO2(WT%);SO3(WT%);S(WT%);LOI(WT%);AL(WT%);TI(WT%);FE(WT%);MG(WT%);CA(WT%);K(WT%);NA(WT%);LI(PPM);BE(PPM);B(PPM);C(PPM);F(PPM);NA(PPM);MG(PPM);AL(PPM);P(PPM);S(PPM);CL(PPM);AR40(AT/G);AR40(CCMSTP/G);AR40(MOL/G);AR40(PPB);K(PPM);CA(PPM);SC(PPM);;;;TI(PPM);;;;V(PPM);CR(PPM);MN(PPM);FE(PPM);CO(PPM);NI(PPM);CU(PPM);ZN(PPM);GA(PPM);GE(PPM);AS(PPM);SE(PPM);BR(PPM);RB(PPM): altern. values or methods;;;;SR(PPM): altern. values or methods;;;;Y(PPM): altern. values or methods;;;;ZR(PPM): altern. values or methods;;;;NB(PPM): altern. values or methods;;;;MO(PPM): altern. values or methods;;;;AG(PPM);CD(PPM);IN(PPM);SN(PPM);SB(PPM);TE(PPM);CS(PPM);BA(PPM): altern. values or methods;;;;LA(PPM): altern. values or methods;;;;CE(PPM): altern. values or methods;;;;PR(PPM);ND(PPM): altern. values or methods;;;;SM(PPM): altern. values or methods;;;;EU(PPM);GD(PPM);TB(PPM);DY(PPM);HO(PPM);ER(PPM);TM(PPM);YB(PPM);LU(PPM);HF(PPM);TA(PPM);W(PPM);RE(PPM);AU(PPM);AU(PPB);HG(PPM);HG(PPB);TL(PPM);PB(PPM): altern. values or methods;;;;PB206(PPM);BI(PPM);TH(PPM): altern. values or methods;;;;U(PPM);ND143_ND144;ND143_ND144_INI;EPSILON_ND;EPSILON_ND_INI;SM147_ND144;SR87_SR86;SR87_SR86_INI;EPSILON_SR;EPSILON_SR_INI;RB87_SR86;PB206_PB204;PB206_PB204_INI;PB206_PB207;PB206_PB208;PB207_PB204;PB207_PB204_INI;PB207_PB206;PB208_PB204;PB208_PB204_INI;PB208_PB206;HF176_HF177;HF176_HF177_INI;EPSILON_HF_INI;LU176_HF177;YB176_HF177;AR36_AR39;AR36_AR40;AR37_AR39;AR38_AR39;AR39_AR40;AR40_AR36;AR40_AR39;PB206_U238;PB207_U235;PB208_TH232;TH232_PB204;TH232_U238;U235_PB204;U238_PB204;U238_PB206;D7LI(VS LSVEC);D18O(PER MIL);D18O(VS SMOW);D18O(VS VSMOW);D56FE(VS IRMM-014);D57FE(VS IRMM-014);DD(VS SMOW);ALBITE(MOL%);ANORTHITE(MOL%);CA OLIVINE(MOL%);ENSTATITE(MOL%);FAYALITE(MOL%);FORSTERITE(MOL%);FERROSILITE(MOL%);ORTHOCLASE(MOL%);TEPHROITE(MOL%);ULVOSPINEL(MOL%);WOLLASTONITE(MOL%);AGE(KA): altern. values or methods;;;;AGE(MA): altern. values or methods;;;;;;;;AGE_PB207_PB206(MA);AGE_PB207_U235(MA);AGE_PB206_U238(MA): altern. values or methods;;;;;;AGE_PB208_TH232(MA);
2007;[17345] VORONTSOV A. A. (2007);samp. TG 13/5;;CENTRAL ASIAN FOLDBELT - MESOZOIC / TRANSBAIKALIA - MESOZOIC / WESTERN TRANSBAIKALIA / KHARITONOVO COMPLEX;MONOSTOISKII AREA;50;108;50;108;;;OUTCROP;;;SUBAERIAL;VOLCANIC ROCK;TRACHYDACITE;;PERALKALINE;;;MESOZOIC;;;;;WHOLE ROCK;;;;;;;;;;;;;66.5;0.6;;;17.03;;;;;;;;;;;;3.13;0.2;0.1;0.04;;;;;;;6.07;XRF;;;5.52;0.08;;;;;;;;;;;;;;0.71;;;;;;;;;;;;;;;;;;;;;;;;;;;;;;;;;;;;;;;;;;;;;;150;XRF;160;TIMS_ID;22;NOT;24;TIMS_ID;33;NOT;;;820;NOT;;;19.96;NOT;;;;;;;;;;;;;;45;NOT;;;89.8;NOT;;;211;NOT;;;23.6;92.8;NOT;;;15.1;NOT;;;1.98;10.93;1.62;9.21;1.95;5.37;0.85;5.53;0.87;37.11;3.87;;;;;;;;34.7;NOT;;;;;22.9;NOT;;;3.5;;;;;;0.75766;;;;19.179;;;;;;;;;;;;;;;;;;;;;;;;;;;;;;;;;;;;;;;;;;;;;;;;;;;;;;;;;;;;;;;;;;;;;;
2007;[17345] VORONTSOV A. A. (2007);samp. TG 13/6;;CENTRAL ASIAN FOLDBELT - MESOZOIC / TRANSBAIKALIA - MESOZOIC / WESTERN TRANSBAIKALIA / KHARITONOVO COMPLEX;MONOSTOISKII AREA;50;108;50;108;;;OUTCROP;;;SUBAERIAL;VOLCANIC ROCK;TRACHYDACITE;;PERALKALINE;;;MESOZOIC;;;;;WHOLE ROCK;;;;;;;;;;;;;65.98;0.6;;;16.4;;;;;;;;;;;;3.79;0.32;0.36;0.14;;;;;;;5.65;XRF;;;5.73;0.09;;;;;;;;;;;;;;0.82;;;;;;;;;;;;;;;;;;;;;;;;;;;;;;;;;;;;;;;;;;;;;;140;XRF;151;TIMS_ID;20;NOT;21;TIMS_ID;39;NOT;;;709;NOT;;;21;NOT;;;;;;;;;;;;;;35;NOT;;;99.8;NOT;;;212.1;NOT;;;23;90.4;NOT;;;14.9;NOT;;;2.04;12.27;1.8;10.64;2.18;6.48;1.05;6.51;1.06;44.35;1.97;;;;;;;;39.4;NOT;;;;;23.6;NOT;;;4.7;;;;;;0.76543;;;;20.621;;;;;;;;;;;;;;;;;;;;;;;;;;;;;;;;;;;;;;;;;;;;;;;;;;;;;;;;;;;;;;;;;;;;;;
2007;[17345] VORONTSOV A. A. (2007);samp. TG 13/8;;CENTRAL ASIAN FOLDBELT - MESOZOIC / TRANSBAIKALIA - MESOZOIC / WESTERN TRANSBAIKALIA / KHARITONOVO COMPLEX;MONOSTOISKII AREA;50;108;50;108;;;OUTCROP;;;SUBAERIAL;VOLCANIC ROCK;TRACHYDACITE;;PERALKALINE;;;MESOZOIC;;;;;WHOLE ROCK;;;;;;;;;;;;;66;0.73;;;16.75;;;;;;;;;;;;3.99;0.2;0.13;0.11;;;;;;;5.76;XRF;;;5.69;0.11;;;;;;;;;;;;;;0.46;;;;;;;;;;;;;;;;;;;;;;;;;;;;;;;;;;;;;;;;;;;;;;140;XRF;152;TIMS_ID;30;NOT;27;TIMS_ID;34;NOT;;;648;NOT;;;25.66;NOT;;;;;;;;;;;;;;35;NOT;;;103.1;NOT;;;224.3;NOT;;;24.9;89.5;NOT;;;13.8;NOT;;;1.44;10.33;1.23;6.58;1.1;3.36;0.51;2.72;0.46;16.82;2.13;;;;;;;;22.3;NOT;;;;;14.9;NOT;;;1.5;;;;;;0.75092;;;;16.378;;;;;;;;;;;;;;;;;;;;;;;;;;;;;;;;;;;;;;;;;;;;;;;;;;;;;;;;;;;;;;;;;;;;;;
2007;[17345] VORONTSOV A. A. (2007);samp. TG 13/6;;CENTRAL ASIAN FOLDBELT - MESOZOIC / TRANSBAIKALIA - MESOZOIC / WESTERN TRANSBAIKALIA / KHARITONOVO COMPLEX;MONOSTOISKII AREA;50;108;50;108;;;OUTCROP;;;SUBAERIAL;VOLCANIC ROCK;TRACHYDACITE;;PERALKALINE;;;MESOZOIC;;;;;MINERAL / COMPONENT (INCL. GROUNDMASS);AEGIRINE;;;;PRIMARY;;;;;;;;49.38;1.48;;;0.96;;;;;;;;;;;21.64;;3.82;6.91;1.83;;;;;;;1.43;EMP (EPMA);;;7.1;;;;;;;;;;;;;;;;;;;;;;;;;;;;;;;;;;;;;;;;;;;;;;;;;;;;;;;;;;;;;;;;;;;;;;;;;;;;;;;;;;;;;;;;;;;;;;;;;;;;;;;;;;;;;;;;;;;;;;;;;;;;;;;;;;;;;;;;;;;;;;;;;;;;;;;;;;;;;;;;;;;;;;;;;;;;;;;;;;;;;;;;;;;;;;;;;;;;;;;;;;;;;;;;;;;;;;;;;;;;;
2007;[17345] VORONTSOV A. A. (2007);samp. TG 13/6;;CENTRAL ASIAN FOLDBELT - MESOZOIC / TRANSBAIKALIA - MESOZOIC / WESTERN TRANSBAIKALIA / KHARITONOVO COMPLEX;MONOSTOISKII AREA;50;108;50;108;;;OUTCROP;;;SUBAERIAL;VOLCANIC ROCK;TRACHYDACITE;;PERALKALINE;;;MESOZOIC;;;;;MINERAL / COMPONENT (INCL. GROUNDMASS);AEGIRINE;;;;PRIMARY;;;;;;;;52.08;0.95;;;1.33;;;;;;;;;;;20.96;;3.13;8.09;1.46;;;;;;;0.86;EMP (EPMA);;;6.32;;;;;;;;;;;;;;;;;;;;;;;;;;;;;;;;;;;;;;;;;;;;;;;;;;;;;;;;;;;;;;;;;;;;;;;;;;;;;;;;;;;;;;;;;;;;;;;;;;;;;;;;;;;;;;;;;;;;;;;;;;;;;;;;;;;;;;;;;;;;;;;;;;;;;;;;;;;;;;;;;;;;;;;;;;;;;;;;;;;;;;;;;;;;;;;;;;;;;;;;;;;;;;;;;;;;;;;;;;;;;
2007;[17345] VORONTSOV A. A. (2007);samp. TG 13/6;;CENTRAL ASIAN FOLDBELT - MESOZOIC / TRANSBAIKALIA - MESOZOIC / WESTERN TRANSBAIKALIA / KHARITONOVO COMPLEX;MONOSTOISKII AREA;50;108;50;108;;;OUTCROP;;;SUBAERIAL;VOLCANIC ROCK;TRACHYDACITE;;PERALKALINE;;;MESOZOIC;;;;;MINERAL / COMPONENT (INCL. GROUNDMASS);AEGIRINE;;;;PRIMARY;;;;;;;;51.79;1.1;;;1.01;;;;;;;;;;;18.61;;5.16;8.85;2.15;;;;;;;1.27;EMP (EPMA);;;6.07;;;;;;;;;;;;;;;;;;;;;;;;;;;;;;;;;;;;;;;;;;;;;;;;;;;;;;;;;;;;;;;;;;;;;;;;;;;;;;;;;;;;;;;;;;;;;;;;;;;;;;;;;;;;;;;;;;;;;;;;;;;;;;;;;;;;;;;;;;;;;;;;;;;;;;;;;;;;;;;;;;;;;;;;;;;;;;;;;;;;;;;;;;;;;;;;;;;;;;;;;;;;;;;;;;;;;;;;;;;;;
2007;[17345] VORONTSOV A. A. (2007);samp. TG 13/6;;CENTRAL ASIAN FOLDBELT - MESOZOIC / TRANSBAIKALIA - MESOZOIC / WESTERN TRANSBAIKALIA / KHARITONOVO COMPLEX;MONOSTOISKII AREA;50;108;50;108;;;OUTCROP;;;SUBAERIAL;VOLCANIC ROCK;TRACHYDACITE;;PERALKALINE;;;MESOZOIC;;;;;MINERAL / COMPONENT (INCL. GROUNDMASS);AEGIRINE;;;;PRIMARY;;;;;;;;51.82;1.01;;;1.53;;;;;;;;;;;17.15;;6.37;10.46;1.85;;;;;;;1.04;EMP (EPMA);;;5.89;;;;;;;;;;;;;;;;;;;;;;;;;;;;;;;;;;;;;;;;;;;;;;;;;;;;;;;;;;;;;;;;;;;;;;;;;;;;;;;;;;;;;;;;;;;;;;;;;;;;;;;;;;;;;;;;;;;;;;;;;;;;;;;;;;;;;;;;;;;;;;;;;;;;;;;;;;;;;;;;;;;;;;;;;;;;;;;;;;;;;;;;;;;;;;;;;;;;;;;;;;;;;;;;;;;;;;;;;;;;;
2013;[17516] LEBEDEV V. A. (2013);samp. G-108/03;;ANATOLIA-IRAN BELT / ARMENIA / GEGHAMA NEOVOLCANIC AREA / MGUB;;40.237255;44.599788;40.237255;44.599788;;;OUTCROP;;;SUBAERIAL;VOLCANIC ROCK;TRACHYDACITE;;;;;QUATERNARY;;;;;WHOLE ROCK;;;;;;;;;;;;;64.93;1;;;16.12;;;;;;;;;4.09;;;;3.41;1.34;0.08;;;;;;;4.28;XRF;;;4.51;0.24;;;;;;;;;;;;;;;;;;;;3.22;;;;;;;;;;;;;;;;0.161;;;;;;;;;;;72;12;;;2;7;10;66;;;;;;86;XRF;;;344;XRF;;;36;XRF;;;373;XRF;;;30;XRF;;;;;;;;;;;;;;890;XRF;;;;;;;;;;;;;;;;;;;;;;;;;;;;;;;;;;;;;;;;;;;;;;;;;;;;;;;;;;;;;;;;;;;;;;;;;;;;;;;;;;;;;;;;;;;;;;;;;;;;;;;;;;;;;;;0.72;K-AR;;;;;;;;;;;;;;;;
2013;[17516] LEBEDEV V. A. (2013);samp. G-73/03;;ANATOLIA-IRAN BELT / ARMENIA / GEGHAMA NEOVOLCANIC AREA / KOVASAR (MENAKSAR);DIKE ON NORTH SLOPE;40.451903;44.787241;40.451903;44.787241;;;OUTCROP;;;SUBAERIAL;VOLCANIC ROCK;TRACHYDACITE;;;;;QUATERNARY;;;;;WHOLE ROCK;;;;;;;;;;;;;68.77;0.45;;;14.56;;;;;;;;;3.44;;;;2.79;1.53;0.07;;;;;;;3.9;XRF;;;4.25;0.24;;;;;;;;;;;;;;;;;;;;3.46;;;;;;;;;;;;;;;;0.13;;;;;;;;;;;69;32;;;9;33;20;58;;;;;;65;XRF;;;388;XRF;;;22;XRF;;;182;XRF;;;23;XRF;;;;;;;;;;;;;;961;XRF;;;;;;;;;;;;;;;;;;;;;;;;;;;;;;;;;;;;;;;;;;;;;;;;;;;;;;;;;;;;;;;;;;;;;;;;;;;;;;;;;;;;;;;;;;;;;;;;;;;;;;;;;;;;;;;0.54;K-AR;;;;;;;;;;;;;;;;
2013;[17640] XU WEN-LIANG (2013);samp. YB4-9;;CENTRAL ASIAN FOLDBELT - MESOZOIC / CHINA - MESOZOIC / JILIN PROVINCE / TUNTIANYING FORMATION;BADAOGOU, LONGJING CITY;43.005;129.1886;43.005;129.1886;;;OUTCROP;;;SUBAERIAL;VOLCANIC ROCK;TRACHYDACITE;;;;;MESOZOIC;;;;;WHOLE ROCK;;;;;;;;;;;;;65.1;0.51;;;16.8;;;;;;;;;3.81;;;;3.39;1.36;0.05;;;;;;;2.79;XRF;;;4.86;0.16;;;;;;;;;;;;;;1.05;;;;;;;;;;;;;;;;;;;;;;;;;;;;;;;;;;;;;;;;;;;;;;;;;;;;;;;;;;;;;;;;;;;;;;;;;;;;;;;;;;;;;;;;;;;;;;;;;;;;;;;;;;;;;;;;;;;;;;;;;;;;;;;;;;;;;;;;;;;;;;;;;;;;;;;;;;;;;;;;;;;;;;;;;;;;;;;;;;;;;;;;;;;;;;;;;;;;;;;;;;;;;;
2013;[17640] XU WEN-LIANG (2013);samp. YB4-10;;CENTRAL ASIAN FOLDBELT - MESOZOIC / CHINA - MESOZOIC / JILIN PROVINCE / TUNTIANYING FORMATION;BADAOGOU;43;129;47;132;;;OUTCROP;;;SUBAERIAL;VOLCANIC ROCK;TRACHYDACITE;;;;;MESOZOIC;;;;;WHOLE ROCK;;;;;;;;;;;;;65.1;0.52;;;16.3;;;;;;;;;3.7;;;;3.52;1.62;0.07;;;;;;;2.74;XRF;;;4.57;0.17;;;;;;;;;;;;;;1.33;;;;;;;;;;;;;;;;;;;;;;;;;;;;;;;;;;;;;;;;;;;;;;;;;;;;;;;;;;;;;;;;;;;;;;;;;;;;;;;;;;;;;;;;;;;;;;;;;;;;;;;;;;;;;;;;;;;;;;;;;;;;;;;;;;;;;;;;;;;;;;;;;;;;;;;;;;;;;;;;;;;;;;;;;;;;;;;;;;;;;;;;;;;;;;;;;;;;;;;;;;;;;;
2013;[17640] XU WEN-LIANG (2013);samp. HTW4-2;;CENTRAL ASIAN FOLDBELT - MESOZOIC / CHINA - MESOZOIC / HEILONGJIANG PROVINCE / GANHE FORMATION;;42;129;48;133;;;OUTCROP;;;SUBAERIAL;VOLCANIC ROCK;TRACHYDACITE;;;;;MESOZOIC;;;;;WHOLE ROCK;;;;;;;;;;;;;64.1;0.67;;;16.3;;;;;;;;;3.55;;;;1.9;0.68;0.03;;;;;;;4.65;XRF;;;5.22;0.21;;;;;;;;;;;;;;2.57;;;;;;;;;;;;;;;;;;;;;;;;;;;;;;;;;;;;;;;;;;;;;;;;;;;;;;;;;;;;;;;;;;;;;;;;;;;;;;;;;;;;;;;;;;;;;;;;;;;;;;;;;;;;;;;;;;;;;;;;;;;;;;;;;;;;;;;;;;;;;;;;;;;;;;;;;;;;;;;;;;;;;;;;;;;;;;;;;;;;;;;;;;;;;;;;;;;;;;;;;;;;;;
2013;[17640] XU WEN-LIANG (2013);samp. HTW4-4;;CENTRAL ASIAN FOLDBELT - MESOZOIC / CHINA - MESOZOIC / HEILONGJIANG PROVINCE / GANHE FORMATION;;42;129;48;133;;;OUTCROP;;;SUBAERIAL;VOLCANIC ROCK;TRACHYDACITE;;;;;MESOZOIC;;;;;WHOLE ROCK;;;;;;;;;;;;;63.4;0.64;;;15.9;;;;;;;;;4.56;;;;1.74;0.96;0.04;;;;;;;4.51;XRF;;;4.78;0.21;;;;;;;;;;;;;;3.27;;;;;;;;;;;;;;;;;;;;;;;;;;;;;;;;;;;;;;;;;;;;;;;;;;;;;;;;;;;;;;;;;;;;;;;;;;;;;;;;;;;;;;;;;;;;;;;;;;;;;;;;;;;;;;;;;;;;;;;;;;;;;;;;;;;;;;;;;;;;;;;;;;;;;;;;;;;;;;;;;;;;;;;;;;;;;;;;;;;;;;;;;;;;;;;;;;;;;;;;;;;;;;
2013;[17640] XU WEN-LIANG (2013);samp. HTW5-3;;CENTRAL ASIAN FOLDBELT - MESOZOIC / CHINA - MESOZOIC / HEILONGJIANG PROVINCE / GANHE FORMATION;;42;129;48;133;;;OUTCROP;;;SUBAERIAL;VOLCANIC ROCK;TRACHYDACITE;;;;;MESOZOIC;;;;;WHOLE ROCK;;;;;;;;;;;;;65.4;0.72;;;15.8;;;;;;;;;3.56;;;;2.06;0.8;0.04;;;;;;;4.46;XRF;;;4.48;0.21;;;;;;;;;;;;;;2.55;;;;;;;;;;;;;;;;;;;;;;;;;;;;;;;;;;;;;;;;;;;;;;;;;;;;;;;;;;;;;;;;;;;;;;;;;;;;;;;;;;;;;;;;;;;;;;;;;;;;;;;;;;;;;;;;;;;;;;;;;;;;;;;;;;;;;;;;;;;;;;;;;;;;;;;;;;;;;;;;;;;;;;;;;;;;;;;;;;;;;;;;;;;;;;;;;;;;;;;;;;;;;;
2013;[17640] XU WEN-LIANG (2013);samp. HTW4-1;;CENTRAL ASIAN FOLDBELT - MESOZOIC / CHINA - MESOZOIC / HEILONGJIANG PROVINCE / GANHE FORMATION;;42;129;48;133;;;OUTCROP;;;SUBAERIAL;VOLCANIC ROCK;TRACHYDACITE;;;;;MESOZOIC;;;;;MINERAL / COMPONENT (INCL. GROUNDMASS);ZIRCON;;;;PRIMARY;;;;;;;;;;;;;;;;;;;;;;;;;;;;;;;;;;;;;;;;;;;;;;;;;;;;;;;;;;;;;;;;;;;;;;;;;;;;;;;;;;;;;;;;;;;;;;;;;;;;;;;;;;;;;;;;;;;;;;;;;;;;;;;;;;;;;;;;;;;;;;;;;;;;;;;;;;;;;;;;;;;;;;;;;;;;;;;1345;ICPMS_LA;;;187;;;;;;;;;;;;;;;;;0.0547;;;;;;;;;;;;;;;;0.06101;0.46772;0.02034;;;;;;;;;;;;;;;;;;;;;;;;;;;;;;;;;;;;400;390;382;PB206_U238 AGE;;;;;;
2013;[17640] XU WEN-LIANG (2013);samp. HTW4-1;;CENTRAL ASIAN FOLDBELT - MESOZOIC / CHINA - MESOZOIC / HEILONGJIANG PROVINCE / GANHE FORMATION;;42;129;48;133;;;OUTCROP;;;SUBAERIAL;VOLCANIC ROCK;TRACHYDACITE;;;;;MESOZOIC;;;;;MINERAL / COMPONENT (INCL. GROUNDMASS);ZIRCON;;;;PRIMARY;;;;;;;;;;;;;;;;;;;;;;;;;;;;;;;;;;;;;;;;;;;;;;;;;;;;;;;;;;;;;;;;;;;;;;;;;;;;;;;;;;;;;;;;;;;;;;;;;;;;;;;;;;;;;;;;;;;;;;;;;;;;;;;;;;;;;;;;;;;;;;;;;;;;;;;;;;;;;;;;;;;;;;;;;;;;;;;53346;ICPMS_LA;;;3976;;;;;;;;;;;;;;;;;0.04852;;;;;;;;;;;;;;;;0.0169;0.11423;0.00537;;;;;;;;;;;;;;;;;;;;;;;;;;;;;;;;;;;;125;110;108;PB206_U238 AGE;;;;;;
2013;[17640] XU WEN-LIANG (2013);samp. HTW4-1;;CENTRAL ASIAN FOLDBELT - MESOZOIC / CHINA - MESOZOIC / HEILONGJIANG PROVINCE / GANHE FORMATION;;42;129;48;133;;;OUTCROP;;;SUBAERIAL;VOLCANIC ROCK;TRACHYDACITE;;;;;MESOZOIC;;;;;MINERAL / COMPONENT (INCL. GROUNDMASS);ZIRCON;;;;PRIMARY;;;;;;;;;;;;;;;;;;;;;;;;;;;;;;;;;;;;;;;;;;;;;;;;;;;;;;;;;;;;;;;;;;;;;;;;;;;;;;;;;;;;;;;;;;;;;;;;;;;;;;;;;;;;;;;;;;;;;;;;;;;;;;;;;;;;;;;;;;;;;;;;;;;;;;;;;;;;;;;;;;;;;;;;;;;;;;;14156;ICPMS_LA;;;1314;;;;;;;;;;;;;;;;;0.04803;;;;;;;;;;;;;;;;0.01688;0.11181;0.00536;;;;;;;;;;;;;;;;;;;;;;;;;;;;;;;;;;;;101;108;108;PB206_U238 AGE;;;;;;
2013;[17640] XU WEN-LIANG (2013);samp. HTW4-1;;CENTRAL ASIAN FOLDBELT - MESOZOIC / CHINA - MESOZOIC / HEILONGJIANG PROVINCE / GANHE FORMATION;;42;129;48;133;;;OUTCROP;;;SUBAERIAL;VOLCANIC ROCK;TRACHYDACITE;;;;;MESOZOIC;;;;;MINERAL / COMPONENT (INCL. GROUNDMASS);ZIRCON;;;;PRIMARY;;;;;;;;;;;;;;;;;;;;;;;;;;;;;;;;;;;;;;;;;;;;;;;;;;;;;;;;;;;;;;;;;;;;;;;;;;;;;;;;;;;;;;;;;;;;;;;;;;;;;;;;;;;;;;;;;;;;;;;;;;;;;;;;;;;;;;;;;;;;;;;;;;;;;;;;;;;;;;;;;;;;;;;;;;;;;;;3045;ICPMS_LA;;;1117;;;;;;;;;;;;;;;;;0.05097;;;;;;;;;;;;;;;;0.03088;0.21836;0.00967;;;;;;;;;;;;;;;;;;;;;;;;;;;;;;;;;;;;239;201;196;PB206_U238 AGE;;;;;;
2013;[17640] XU WEN-LIANG (2013);samp. HTW4-1;;CENTRAL ASIAN FOLDBELT - MESOZOIC / CHINA - MESOZOIC / HEILONGJIANG PROVINCE / GANHE FORMATION;;42;129;48;133;;;OUTCROP;;;SUBAERIAL;VOLCANIC ROCK;TRACHYDACITE;;;;;MESOZOIC;;;;;MINERAL / COMPONENT (INCL. GROUNDMASS);ZIRCON;;;;PRIMARY;;;;;;;;;;;;;;;;;;;;;;;;;;;;;;;;;;;;;;;;;;;;;;;;;;;;;;;;;;;;;;;;;;;;;;;;;;;;;;;;;;;;;;;;;;;;;;;;;;;;;;;;;;;;;;;;;;;;;;;;;;;;;;;;;;;;;;;;;;;;;;;;;;;;;;;;;;;;;;;;;;;;;;;;;;;;;;;1278;ICPMS_LA;;;261;;;;;;;;;;;;;;;;;0.05776;;;;;;;;;;;;;;;;0.0308;0.24104;0.01;;;;;;;;;;;;;;;;;;;;;;;;;;;;;;;;;;;;521;219;196;PB206_U238 AGE;;;;;;
2013;[17640] XU WEN-LIANG (2013);samp. HTW4-1;;CENTRAL ASIAN FOLDBELT - MESOZOIC / CHINA - MESOZOIC / HEILONGJIANG PROVINCE / GANHE FORMATION;;42;129;48;133;;;OUTCROP;;;SUBAERIAL;VOLCANIC ROCK;TRACHYDACITE;;;;;MESOZOIC;;;;;MINERAL / COMPONENT (INCL. GROUNDMASS);ZIRCON;;;;PRIMARY;;;;;;;;;;;;;;;;;;;;;;;;;;;;;;;;;;;;;;;;;;;;;;;;;;;;;;;;;;;;;;;;;;;;;;;;;;;;;;;;;;;;;;;;;;;;;;;;;;;;;;;;;;;;;;;;;;;;;;;;;;;;;;;;;;;;;;;;;;;;;;;;;;;;;;;;;;;;;;;;;;;;;;;;;;;;;;;21484;ICPMS_LA;;;1135;;;;;;;;;;;;;;;;;0.05159;;;;;;;;;;;;;;;;0.01708;0.12303;0.00536;;;;;;;;;;;;;;;;;;;;;;;;;;;;;;;;;;;;267;118;109;PB206_U238 AGE;;;;;;
2013;[17640] XU WEN-LIANG (2013);samp. HTW4-1;;CENTRAL ASIAN FOLDBELT - MESOZOIC / CHINA - MESOZOIC / HEILONGJIANG PROVINCE / GANHE FORMATION;;42;129;48;133;;;OUTCROP;;;SUBAERIAL;VOLCANIC ROCK;TRACHYDACITE;;;;;MESOZOIC;;;;;MINERAL / COMPONENT (INCL. GROUNDMASS);ZIRCON;;;;PRIMARY;;;;;;;;;;;;;;;;;;;;;;;;;;;;;;;;;;;;;;;;;;;;;;;;;;;;;;;;;;;;;;;;;;;;;;;;;;;;;;;;;;;;;;;;;;;;;;;;;;;;;;;;;;;;;;;;;;;;;;;;;;;;;;;;;;;;;;;;;;;;;;;;;;;;;;;;;;;;;;;;;;;;;;;;;;;;;;;3146;ICPMS_LA;;;564;;;;;;;;;;;;;;;;;0.04996;;;;;;;;;;;;;;;;0.03088;0.21398;0.01001;;;;;;;;;;;;;;;;;;;;;;;;;;;;;;;;;;;;193;197;196;PB206_U238 AGE;;;;;;
2013;[17640] XU WEN-LIANG (2013);samp. HTW4-1;;CENTRAL ASIAN FOLDBELT - MESOZOIC / CHINA - MESOZOIC / HEILONGJIANG PROVINCE / GANHE FORMATION;;42;129;48;133;;;OUTCROP;;;SUBAERIAL;VOLCANIC ROCK;TRACHYDACITE;;;;;MESOZOIC;;;;;MINERAL / COMPONENT (INCL. GROUNDMASS);ZIRCON;;;;PRIMARY;;;;;;;;;;;;;;;;;;;;;;;;;;;;;;;;;;;;;;;;;;;;;;;;;;;;;;;;;;;;;;;;;;;;;;;;;;;;;;;;;;;;;;;;;;;;;;;;;;;;;;;;;;;;;;;;;;;;;;;;;;;;;;;;;;;;;;;;;;;;;;;;;;;;;;;;;;;;;;;;;;;;;;;;;;;;;;;22559;ICPMS_LA;;;973;;;;;;;;;;;;;;;;;0.0509;;;;;;;;;;;;;;;;0.01631;0.11445;0.00514;;;;;;;;;;;;;;;;;;;;;;;;;;;;;;;;;;;;236;110;104;PB206_U238 AGE;;;;;;
2013;[17640] XU WEN-LIANG (2013);samp. HTW4-1;;CENTRAL ASIAN FOLDBELT - MESOZOIC / CHINA - MESOZOIC / HEILONGJIANG PROVINCE / GANHE FORMATION;;42;129;48;133;;;OUTCROP;;;SUBAERIAL;VOLCANIC ROCK;TRACHYDACITE;;;;;MESOZOIC;;;;;MINERAL / COMPONENT (INCL. GROUNDMASS);ZIRCON;;;;PRIMARY;;;;;;;;;;;;;;;;;;;;;;;;;;;;;;;;;;;;;;;;;;;;;;;;;;;;;;;;;;;;;;;;;;;;;;;;;;;;;;;;;;;;;;;;;;;;;;;;;;;;;;;;;;;;;;;;;;;;;;;;;;;;;;;;;;;;;;;;;;;;;;;;;;;;;;;;;;;;;;;;;;;;;;;;;;;;;;;32824;ICPMS_LA;;;1235;;;;;;;;;;;;;;;;;0.05094;;;;;;;;;;;;;;;;0.0169;0.12092;0.00518;;;;;;;;;;;;;;;;;;;;;;;;;;;;;;;;;;;;238;116;108;PB206_U238 AGE;;;;;;
2013;[17640] XU WEN-LIANG (2013);samp. HTW4-1;;CENTRAL ASIAN FOLDBELT - MESOZOIC / CHINA - MESOZOIC / HEILONGJIANG PROVINCE / GANHE FORMATION;;42;129;48;133;;;OUTCROP;;;SUBAERIAL;VOLCANIC ROCK;TRACHYDACITE;;;;;MESOZOIC;;;;;MINERAL / COMPONENT (INCL. GROUNDMASS);ZIRCON;;;;PRIMARY;;;;;;;;;;;;;;;;;;;;;;;;;;;;;;;;;;;;;;;;;;;;;;;;;;;;;;;;;;;;;;;;;;;;;;;;;;;;;;;;;;;;;;;;;;;;;;;;;;;;;;;;;;;;;;;;;;;;;;;;;;;;;;;;;;;;;;;;;;;;;;;;;;;;;;;;;;;;;;;;;;;;;;;;;;;;;;;26951;ICPMS_LA;;;966;;;;;;;;;;;;;;;;;0.052;;;;;;;;;;;;;;;;0.01713;0.12396;0.00571;;;;;;;;;;;;;;;;;;;;;;;;;;;;;;;;;;;;286;119;110;PB206_U238 AGE;;;;;;
2013;[17640] XU WEN-LIANG (2013);samp. HTW4-1;;CENTRAL ASIAN FOLDBELT - MESOZOIC / CHINA - MESOZOIC / HEILONGJIANG PROVINCE / GANHE FORMATION;;42;129;48;133;;;OUTCROP;;;SUBAERIAL;VOLCANIC ROCK;TRACHYDACITE;;;;;MESOZOIC;;;;;MINERAL / COMPONENT (INCL. GROUNDMASS);ZIRCON;;;;PRIMARY;;;;;;;;;;;;;;;;;;;;;;;;;;;;;;;;;;;;;;;;;;;;;;;;;;;;;;;;;;;;;;;;;;;;;;;;;;;;;;;;;;;;;;;;;;;;;;;;;;;;;;;;;;;;;;;;;;;;;;;;;;;;;;;;;;;;;;;;;;;;;;;;;;;;;;;;;;;;;;;;;;;;;;;;;;;;;;;4113;ICPMS_LA;;;986;;;;;;;;;;;;;;;;;0.05142;;;;;;;;;;;;;;;;0.04042;0.28866;0.01232;;;;;;;;;;;;;;;;;;;;;;;;;;;;;;;;;;;;260;258;255;PB206_U238 AGE;;;;;;
2013;[17640] XU WEN-LIANG (2013);samp. HTW4-1;;CENTRAL ASIAN FOLDBELT - MESOZOIC / CHINA - MESOZOIC / HEILONGJIANG PROVINCE / GANHE FORMATION;;42;129;48;133;;;OUTCROP;;;SUBAERIAL;VOLCANIC ROCK;TRACHYDACITE;;;;;MESOZOIC;;;;;MINERAL / COMPONENT (INCL. GROUNDMASS);ZIRCON;;;;PRIMARY;;;;;;;;;;;;;;;;;;;;;;;;;;;;;;;;;;;;;;;;;;;;;;;;;;;;;;;;;;;;;;;;;;;;;;;;;;;;;;;;;;;;;;;;;;;;;;;;;;;;;;;;;;;;;;;;;;;;;;;;;;;;;;;;;;;;;;;;;;;;;;;;;;;;;;;;;;;;;;;;;;;;;;;;;;;;;;;50782;ICPMS_LA;;;1559;;;;;;;;;;;;;;;;;0.05007;;;;;;;;;;;;;;;;0.01692;0.11775;0.00555;;;;;;;;;;;;;;;;;;;;;;;;;;;;;;;;;;;;198;113;108;PB206_U238 AGE;;;;;;
2013;[17640] XU WEN-LIANG (2013);samp. HTW4-1;;CENTRAL ASIAN FOLDBELT - MESOZOIC / CHINA - MESOZOIC / HEILONGJIANG PROVINCE / GANHE FORMATION;;42;129;48;133;;;OUTCROP;;;SUBAERIAL;VOLCANIC ROCK;TRACHYDACITE;;;;;MESOZOIC;;;;;MINERAL / COMPONENT (INCL. GROUNDMASS);ZIRCON;;;;PRIMARY;;;;;;;;;;;;;;;;;;;;;;;;;;;;;;;;;;;;;;;;;;;;;;;;;;;;;;;;;;;;;;;;;;;;;;;;;;;;;;;;;;;;;;;;;;;;;;;;;;;;;;;;;;;;;;;;;;;;;;;;;;;;;;;;;;;;;;;;;;;;;;;;;;;;;;;;;;;;;;;;;;;;;;;;;;;;;;;5077;ICPMS_LA;;;692;;;;;;;;;;;;;;;;;0.05128;;;;;;;;;;;;;;;;0.04022;0.28436;0.01266;;;;;;;;;;;;;;;;;;;;;;;;;;;;;;;;;;;;253;254;254;PB206_U238 AGE;;;;;;