Year;CITATION;SAMPLE NAME;UNIQUE_ID;LOCATION;LOCATION COMMENT;LATITUDE (MIN.);LONGITUDE (MIN.);LATITUDE (MAX.);LONGITUDE (MAX.);ELEVATION (MIN.);ELEVATION (MAX.);SAMPLING TECHNIQUE;DRILLING DEPTH (MIN.);DRILLING DEPTH (MAX.);LAND/SEA (SAMPLING);ROCK TYPE;ROCK NAME;ROCK TEXTURE;SAMPLE COMMENT;AGE (MIN.);AGE (MAX.);GEOLOGICAL AGE;GEOLOGICAL AGE PREFIX;ERUPTION YEAR;ALTERATION;ALTERATION TYPE;TYPE OF MATERIAL;MINERAL / COMPONENT;SPOT (MINERAL);CRYSTAL;RIM / CORE (MINERAL GRAINS);PRIMARY/SECONDARY;INCLUSION TYPE;SPOT (INCLUSION);MINERAL (INCLUSION);RIM / CORE (INCLUSION);HOSTMINERAL (INCLUSION);HEATING;HEATING TEMPERATURE (?C);SIO2(WT%);TIO2(WT%);ZRO2(WT%);B2O3(WT%);AL2O3(WT%);CR2O3(WT%);LA2O3(WT%);CE2O3(WT%);Y2O3(WT%);V2O3(WT%);NB2O3(WT%);TA2O5(WT%);WO3(WT%);FE2O3T(WT%);FE2O3(WT%);FEOT(WT%);FEO(WT%);CAO(WT%);MGO(WT%);MNO(WT%);BAO(WT%);SRO(WT%);NIO(WT%);ZNO(WT%);CS2O(WT%);RB2O(WT%);K2O(WT%);;;;NA2O(WT%);P2O5(WT%);H2O(WT%);;;;H2OP(WT%);H2OM(WT%);CO2(WT%);C(WT%);F(WT%);CL(WT%);SO2(WT%);SO3(WT%);S(WT%);LOI(WT%);AL(WT%);TI(WT%);FE(WT%);MG(WT%);CA(WT%);K(WT%);NA(WT%);LI(PPM);BE(PPM);B(PPM);C(PPM);F(PPM);NA(PPM);MG(PPM);AL(PPM);P(PPM);S(PPM);CL(PPM);AR40(AT/G);AR40(CCMSTP/G);AR40(MOL/G);AR40(PPB);K(PPM);CA(PPM);SC(PPM);;;;TI(PPM);;;;V(PPM);CR(PPM);MN(PPM);FE(PPM);CO(PPM);NI(PPM);CU(PPM);ZN(PPM);GA(PPM);GE(PPM);AS(PPM);SE(PPM);BR(PPM);RB(PPM): altern. values or methods;;;;SR(PPM): altern. values or methods;;;;Y(PPM): altern. values or methods;;;;ZR(PPM): altern. values or methods;;;;NB(PPM): altern. values or methods;;;;MO(PPM): altern. values or methods;;;;AG(PPM);CD(PPM);IN(PPM);SN(PPM);SB(PPM);TE(PPM);CS(PPM);BA(PPM): altern. values or methods;;;;LA(PPM): altern. values or methods;;;;CE(PPM): altern. values or methods;;;;PR(PPM);ND(PPM): altern. values or methods;;;;SM(PPM): altern. values or methods;;;;EU(PPM);GD(PPM);TB(PPM);DY(PPM);HO(PPM);ER(PPM);TM(PPM);YB(PPM);LU(PPM);HF(PPM);TA(PPM);W(PPM);RE(PPM);AU(PPM);AU(PPB);HG(PPM);HG(PPB);TL(PPM);PB(PPM): altern. values or methods;;;;PB206(PPM);BI(PPM);TH(PPM): altern. values or methods;;;;U(PPM);ND143_ND144;ND143_ND144_INI;EPSILON_ND;EPSILON_ND_INI;SM147_ND144;SR87_SR86;SR87_SR86_INI;EPSILON_SR;EPSILON_SR_INI;RB87_SR86;PB206_PB204;PB206_PB204_INI;PB206_PB207;PB206_PB208;PB207_PB204;PB207_PB204_INI;PB207_PB206;PB208_PB204;PB208_PB204_INI;PB208_PB206;HF176_HF177;HF176_HF177_INI;EPSILON_HF_INI;LU176_HF177;YB176_HF177;AR36_AR39;AR36_AR40;AR37_AR39;AR38_AR39;AR39_AR40;AR40_AR36;AR40_AR39;PB206_U238;PB207_U235;PB208_TH232;TH232_PB204;TH232_U238;U235_PB204;U238_PB204;U238_PB206;D7LI(VS LSVEC);D18O(PER MIL);D18O(VS SMOW);D18O(VS VSMOW);D56FE(VS IRMM-014);D57FE(VS IRMM-014);DD(VS SMOW);ALBITE(MOL%);ANORTHITE(MOL%);CA OLIVINE(MOL%);ENSTATITE(MOL%);FAYALITE(MOL%);FORSTERITE(MOL%);FERROSILITE(MOL%);ORTHOCLASE(MOL%);TEPHROITE(MOL%);ULVOSPINEL(MOL%);WOLLASTONITE(MOL%);AGE(KA): altern. values or methods;;;;AGE(MA): altern. values or methods;;;;;;;;AGE_PB207_PB206(MA);AGE_PB207_U235(MA);AGE_PB206_U238(MA): altern. values or methods;;;;;;AGE_PB208_TH232(MA);
2016;[20344] FODOR R. V. (2016);samp. SD-5;;BASIN AND RANGE - GREAT BASIN / BASIN AND RANGE / ARIZONA / GOLDFIELD-SUPERSTITION VOLCANIC FIELD;SIPHON DRAW;33.4425;-111.4622;33.4425;-111.4622;;;OUTCROP;;;SUBAERIAL;VOLCANIC ROCK;TRACHYDACITE;;;;;MIOCENE;;;;;MINERAL / COMPONENT (INCL. GROUNDMASS);TITANITE (SPHENE);;;;PRIMARY;;;;;;;;30.5;34.4;;;1.1;;0.41;0.98;;;;;;;;2;;26.1;0.08;0.33;;;;;;;0.02;EMP (EPMA);;;;;;;;;;;;;;;;;;;;;;;;;;;;;;;;;;;;;;;;;;;;;;;;;;;;;;;;;;;;;;;;;;;;;;;;;;;;;;;;;;;;;;;;;;;;;;;;;;;;;;;;;;;;;;;;;;;;;;;;;;;;;;;;;;;;;;;;;;;;;;;;;;;;;;;;;;;;;;;;;;;;;;;;;;;;;;;;;;;;;;;;;;;;;;;;;;;;;;;;;;;;;;;;;;;;;;;;;;;;;;;;
2013;[20388] VORONTSOV A. A. (2013);samp. SHIR 1/3;;CENTRAL ASIAN FOLDBELT - PALEOZOIC / SIBERIA_PALEOZOIC / CHEBAKI-BALAKHTA TROUGH;SHIRA;53;90;56;92;;;OUTCROP;;;SUBAERIAL;VOLCANIC ROCK;TRACHYDACITE;;;;;DEVONIAN;;;;;WHOLE ROCK;;;;;;;;;;;;;65.71;0.43;;;17.3;;;;;;;;;4.56;;;;0.92;0.3;0.03;;;;;;;0.42;XRF;;;9.94;0.07;;;;;;;;;;;;;;0.43;;;;;;;;;;;;;;;;;;;;;;;;;;;;;;;;;;;;;;;;;;;;;;5.5;ICPMS;;;262;ICPMS;;;41.3;ICPMS;;;519;ICPMS;;;26.42;ICPMS;;;;;;;;;;;;;;385;ICPMS;;;55.6;ICPMS;;;128.9;ICPMS;;;14.6;55.9;ICPMS;;;9.71;ICPMS;;;1.74;8.5;1.31;8.53;1.81;5.52;0.85;5.84;0.93;10.6;1.82;;;;;;;;32.4;ICPMS;;;;;12.7;ICPMS;;;2.13;;;;;;;;;;;;;;;;;;;;;;;;;;;;;;;;;;;;;;;;;;;;;;;;;;;;;;;;;;;;;;;;;;;;;;;;;;;;;;;;
2016;[20392] SPIKINGS R. A.(2016)  [GeoReM [9390] ];samp. MR62;;ANDEAN ARC / CENTRAL ANDEAN VOLCANIC ZONE / PERU;MITU GROUP, SACRED VALLEY, 20 KM N OF CUSCO;-13.26;-71.92;-13.26;-71.92;;;OUTCROP;;;SUBAERIAL;VOLCANIC ROCK;TRACHYDACITE;;;;;;;;;;WHOLE ROCK;;;;;;;;;;;;;64.8195918367347;0.950204081632653;;;15.2816326530612;;;;;;;;;6.32816326530612;;;;0.548571428571429;0.372244897959184;0.156734693877551;;;;;;;4.36897959183673;XRF;;;4.79020408163265;0.303673469387755;;;;;;;;;;;;;;2.04;;;;;;;;;3.99;;;;;;;;;;;;;;;;9.18;ICPMS_LA;;;;;;;19;1;;;9.6;10.79;12.63;44.82;35.21;;14.6;;;87.16;ICPMS_LA;;;94;ICPMS_LA;;;79.35;ICPMS_LA;;;854.42;ICPMS_LA;;;79.62;ICPMS_LA;;;3.67;ICPMS_LA;;;;;;;;;2.36;201.72;ICPMS_LA;;;73.29;ICPMS_LA;;;148.56;ICPMS_LA;;;16.89;69.01;ICPMS_LA;;;14.17;ICPMS_LA;;;3.35;13.02;2.28;13.46;2.87;8.07;1.22;8.19;1.24;17.78;4.55;19.29;;;;;;;8.5;ICPMS_LA;;;;;14.55;ICPMS_LA;;;4.07;0.512786;;;;0.123633232785939;;;;;;;;;;;;;;;;;;;;;;;;;;;;;;;;;;;;;;;;;;;;;;;;;;;;;;;;;;;;;;;;;;;;;;;;;;;
2016;[20524] THOURET J.-C. (2016);samp. PIG-03-123;215354;ANDEAN ARC / CENTRAL ANDEAN VOLCANIC ZONE / PERU / OCONA;;-15.5689;-73.0842;-15.5689;-73.0842;;;OUTCROP;;;SUBAERIAL;VOLCANIC ROCK;TRACHYDACITE;;;;;;;;;;MINERAL / COMPONENT (INCL. GROUNDMASS);FELDSPAR;;;;PRIMARY;;;;;;;;;;;;;;;;;;;;;;;;;;;;;;;;;;;;;;;;;;;;;;;;;;;;;;;;;;;;;;;;;;;;;;;;;;;;;;;;;;;;;;;;;;;;;;;;;;;;;;;;;;;;;;;;;;;;;;;;;;;;;;;;;;;;;;;;;;;;;;;;;;;;;;;;;;;;;;;;;;;;;;;;;;;;;;;;;;;;;;;;;;;;;;;;;;;;;;;;;;;;;;;;;;;;;;;;;;;;;;;;;;;;;;;;;;;;;;;;;;1.36;AR-AR;;;;;;;;;;;;;;;;
2016;[20524] THOURET J.-C. (2016);samp. PIG-02-84;256559;ANDEAN ARC / CENTRAL ANDEAN VOLCANIC ZONE / PERU;;-15.24667;-72.87639;-15.24667;-72.87639;;4020;OUTCROP;;;SUBAERIAL;VOLCANIC ROCK;TRACHYDACITE;;;;;;;;;;MINERAL / COMPONENT (INCL. GROUNDMASS);FELDSPAR;;;;PRIMARY;;;;;;;;;;;;;;;;;;;;;;;;;;;;;;;;;;;;;;;;;;;;;;;;;;;;;;;;;;;;;;;;;;;;;;;;;;;;;;;;;;;;;;;;;;;;;;;;;;;;;;;;;;;;;;;;;;;;;;;;;;;;;;;;;;;;;;;;;;;;;;;;;;;;;;;;;;;;;;;;;;;;;;;;;;;;;;;;;;;;;;;;;;;;;;;;;;;;;;;;;;;;;;;;;;;;;;;;;;;;;;;;;;;;;;;;;;;;;;;;;;1.56;AR-AR;;;;;;;;;;;;;;;;
2016;[20524] THOURET J.-C. (2016);samp. PIG-00-41;215386;ANDEAN ARC / CENTRAL ANDEAN VOLCANIC ZONE / PERU / TACAZA-NAZCA IGNIMBRITE;MOQUEGUA;-17.3508;-70.1981;-17.3508;-70.1981;;;OUTCROP;;;SUBAERIAL;VOLCANIC ROCK;TRACHYDACITE;;;;;;;;;;MINERAL / COMPONENT (INCL. GROUNDMASS);FELDSPAR;;;;PRIMARY;;;;;;;;;;;;;;;;;;;;;;;;;;;;;;;;;;;;;;;;;;;;;;;;;;;;;;;;;;;;;;;;;;;;;;;;;;;;;;;;;;;;;;;;;;;;;;;;;;;;;;;;;;;;;;;;;;;;;;;;;;;;;;;;;;;;;;;;;;;;;;;;;;;;;;;;;;;;;;;;;;;;;;;;;;;;;;;;;;;;;;;;;;;;;;;;;;;;;;;;;;;;;;;;;;;;;;;;;;;;;;;;;;;;;;;;;;;;;;;;;;18.9;AR-AR;;;;;;;;;;;;;;;;
2016;[20524] THOURET J.-C. (2016);samp. BAR-03-01;;ANDEAN ARC / CENTRAL ANDEAN VOLCANIC ZONE / PERU;;-15.07875;-72.71837;-15.07875;-72.71837;;3510;OUTCROP;;;SUBAERIAL;VOLCANIC ROCK;TRACHYDACITE;;;;;;;;;;MINERAL / COMPONENT (INCL. GROUNDMASS);FELDSPAR;;;;PRIMARY;;;;;;;;;;;;;;;;;;;;;;;;;;;;;;;;;;;;;;;;;;;;;;;;;;;;;;;;;;;;;;;;;;;;;;;;;;;;;;;;;;;;;;;;;;;;;;;;;;;;;;;;;;;;;;;;;;;;;;;;;;;;;;;;;;;;;;;;;;;;;;;;;;;;;;;;;;;;;;;;;;;;;;;;;;;;;;;;;;;;;;;;;;;;;;;;;;;;;;;;;;;;;;;;;;;;;;;;;;;;;;;;;;;;;;;;;;;;;;;;;;5.8;AR-AR;;;;;;;;;;;;;;;;
2016;[20547] JONES R. E. (2016);samp. RJ11A15;478647;ANDEAN ARC / SOUTHERN ANDEAN VOLCANIC ZONE / ARGENTINA/CHILE;TERTIARY INTRUSIVES;-30.55139;-69.46786;-30.55139;-69.46786;;;OUTCROP;;;SUBAERIAL;VOLCANIC ROCK;TRACHYDACITE;;;;;;;;;;WHOLE ROCK;;;;;;;;;;;;;63;0.63;;;16.95;;;;;;;;;4.1;;;;4.46;1.6;0.07;;;;;;;2.13;XRF;;;5.06;0.26;;;;;;;;;;;;;;1.33;;;;;;;;;;;;;;;;;;;;;;;;;6;ICPMS;;;;;;;65.5;8.6;;;;5.8;6.7;76.8;;;;;;35.2;ICPMS;;;859.7;ICPMS;;;10.2;ICPMS;;;154.3;ICPMS;;;8.9;ICPMS;;;;;;;;;;;;;;716.2;ICPMS;;;22.7;ICPMS;;;48.1;ICPMS;;;5.9;23.4;ICPMS;;;4.2;ICPMS;;;1.3;3.2;0.4;1.8;0.3;0.8;0.1;0.6;0.1;1.4;;;;;;;;;16;ICPMS;;;;;1.8;ICPMS;;;0.5;;;;;;;;;;;;;;;;;;;;;;;;;;;;;;;;;;;;;;;;;;;;;;;;;;;;;;;;;;;;;;;;;;;;;;;;;;;;;;;;
2016;[20547] JONES R. E. (2016);samp. RJ11A15;478647;ANDEAN ARC / SOUTHERN ANDEAN VOLCANIC ZONE / ARGENTINA/CHILE;TERTIARY INTRUSIVES;-30.55139;-69.46786;-30.55139;-69.46786;;;OUTCROP;;;SUBAERIAL;VOLCANIC ROCK;TRACHYDACITE;;;;;;;;;;MINERAL / COMPONENT (INCL. GROUNDMASS);ZIRCON;;;;PRIMARY;;;;;;;;;;;;;;;;;;;;;;;;;;;;;;;;;;;;;;;;;;;;;;;;;;;;;;;;;;;;;;;;;;;;;;;;;;;;;;;;;;;;;;;;;;;;;;;;;;;;;;;;;;;;;;;;;;;;;;;;;;;;;;;;;;;;;;;;;;;;;;;;;;;;;;;;;;;;;;;;;;;;;;;;;;;;;;;;;;;;;;;;;;;;;;;;;;;;;;;;;;;;;;;;;;;;;;;;;;;;;;;;;;;;;;;;;;;;;;;;;;;;;;;;;;;;9.4;PB206_U238 AGE;;;;;;
2016;[20713] SEGHEDI I. (2016);samp. KG-100A;;ANATOLIA-IRAN BELT / TURKEY / WESTERN ANATOLIAN VOLCANIC BELT / KIRKA-PHRIGIAN CALDERA;;30.346;39.348;30.346;39.348;;;DRILL HOLE ;;;SUBAERIAL;VOLCANIC ROCK;TRACHYDACITE;;;;;MIOCENE;LOWER;;;;WHOLE ROCK;;;;;;;;;;;;;62.74;0.65;;;15.52;;;;;;;;;4.79;;;;4.18;1.98;0.1;;;;;;;4.32;ICPAES;;;3.43;0.38;;;;;;;;;;;;;;1.4;;;;;;;;;;;;;;;;;;;;;;;;;11;ICPMS;;;;;;;77;;;;20.6;4;0.5;34;19;;;;;141.5;ICPMS;;;490.9;ICPMS;;;30.3;ICPMS;;;246;ICPMS;;;16.1;ICPMS;;;;;;;;;;;;;;1083;ICPMS;;;39.8;ICPMS;;;75.5;ICPMS;;;8.87;34.2;ICPMS;;;6.72;ICPMS;;;1.57;6.25;0.9;5.22;1.05;2.91;0.43;2.71;0.4;6.4;1.2;;;;;;;;2.3;ICPMS;;;;;15.6;ICPMS;;;5.2;0.5124;;;;;0.7091;;;;;;;;;;;;;;;;;;;;;;;;;;;;;;;;;;;;;;;;;;;;;;;;;;;;;;;;;;;;;;;;;;;;;;;;;;
2016;[20713] SEGHEDI I. (2016);samp. KG-37A;;ANATOLIA-IRAN BELT / TURKEY / WESTERN ANATOLIAN VOLCANIC BELT / KIRKA-PHRIGIAN CALDERA;;30.648;39.418;30.648;39.418;;;DRILL HOLE ;;;SUBAERIAL;VOLCANIC ROCK;TRACHYDACITE;;;;;MIOCENE;LOWER;;;;WHOLE ROCK;;;;;;;;;;;;;66.29;0.51;;;15.2;;;;;;;;;3.73;;;;3.16;1.36;0.07;;;;;;;4.54;ICPAES;;;3.52;0.16;;;;;;;;;;;;;;1.2;;;;;;;;;;;;;;;;;;;;;;;;;8;ICPMS;;;;;;;62;;;;21.9;5;2.4;27;16.7;;;;;164.1;ICPMS;;;315.5;ICPMS;;;22.2;ICPMS;;;195.4;ICPMS;;;17.2;ICPMS;;;;;;;;;;;;;;873;ICPMS;;;42.4;ICPMS;;;73.3;ICPMS;;;7.78;25.3;ICPMS;;;5.01;ICPMS;;;0.86;4.28;0.65;3.6;0.76;2.19;0.34;2.15;0.33;5.6;1.5;;;;;;;;3.7;ICPMS;;;;;24.3;ICPMS;;;7.9;0.5124;;;;;0.7089;;;;;;;;;;;;;;;;;;;;;;;;;;;;;;;;;;;;;;;;;;;;;;;;;;;;;;;;;;;;;;;;;;;;;;;;;;
2016;[20713] SEGHEDI I. (2016);samp. KG-37C;;ANATOLIA-IRAN BELT / TURKEY / WESTERN ANATOLIAN VOLCANIC BELT / KIRKA-PHRIGIAN CALDERA;;30.648;39.418;30.648;39.418;;;DRILL HOLE ;;;SUBAERIAL;VOLCANIC ROCK;TRACHYDACITE;;;;;MIOCENE;LOWER;;;;WHOLE ROCK;;;;;;;;;;;;;63.29;0.64;;;15.06;;;;;;;;;4.61;;;;4.62;2.31;0.09;;;;;;;4.02;ICPAES;;;3.19;0.17;;;;;;;;;;;;;;1.6;;;;;;;;;;;;;;;;;;;;;;;;;13;ICPMS;;;;;;;99;;;;47.8;9;5.3;28;17.3;;;;;138.1;ICPMS;;;482;ICPMS;;;23.6;ICPMS;;;174.8;ICPMS;;;16.3;ICPMS;;;;;;;;;;;;;;1510;ICPMS;;;38.5;ICPMS;;;66.5;ICPMS;;;7.55;27.3;ICPMS;;;5.24;ICPMS;;;1.09;4.8;0.71;4.13;0.84;2.25;0.34;2.45;0.37;4.6;1.4;;;;;;;;5.7;ICPMS;;;;;20.4;ICPMS;;;6.5;0.5124;;;;;0.7084;;;;;;;;;;;;;;;;;;;;;;;;;;;;;;;;;;;;;;;;;;;;;;;;;;;;;;;;;;;;;;;;;;;;;;;;;;
2016;[20713] SEGHEDI I. (2016);samp. KG-37A;;ANATOLIA-IRAN BELT / TURKEY / WESTERN ANATOLIAN VOLCANIC BELT / KIRKA-PHRIGIAN CALDERA;;30.648;39.418;30.648;39.418;;;DRILL HOLE ;;;SUBAERIAL;VOLCANIC ROCK;TRACHYDACITE;;;;;MIOCENE;LOWER;;;;MINERAL / COMPONENT (INCL. GROUNDMASS);BIOTITE;;;;PRIMARY;;;;;;;;;;;;;;;;;;;;;;;;;;;;;;;;;;;;;;;;;;;;;;;;;;;;;;;;;;;;;;;;;;;;;;;;;;;;;;;;;;;;;;;;;;;;;;;;;;;;;;;;;;;;;;;;;;;;;;;;;;;;;;;;;;;;;;;;;;;;;;;;;;;;;;;;;;;;;;;;;;;;;;;;;;;;;;;;;;;;;;;;;;;;;;;;;;;;;;;;;;;;;;;;;;;;;;;;;;;;;;;;;;;;;;;;;;;;;;;;;;18.78;AR-AR;;;;;;;;;;;;;;;;
2016;[20713] SEGHEDI I. (2016);samp. KG-37C;;ANATOLIA-IRAN BELT / TURKEY / WESTERN ANATOLIAN VOLCANIC BELT / KIRKA-PHRIGIAN CALDERA;;30.648;39.418;30.648;39.418;;;DRILL HOLE ;;;SUBAERIAL;VOLCANIC ROCK;TRACHYDACITE;;;;;MIOCENE;LOWER;;;;MINERAL / COMPONENT (INCL. GROUNDMASS);PLAGIOCLASE;;;;PRIMARY;;;;;;;;;;;;;;;;;;;;;;;;;;;;;;;;;;;;;;;;;;;;;;;;;;;;;;;;;;;;;;;;;;;;;;;;;;;;;;;;;;;;;;;;;;;;;;;;;;;;;;;;;;;;;;;;;;;;;;;;;;;;;;;;;;;;;;;;;;;;;;;;;;;;;;;;;;;;;;;;;;;;;;;;;;;;;;;;;;;;;;;;;;;;;;;;;;;;;;;;;;;;;;;;;;;;;;;;;;;;;;;;;;;;;;;;;;;;;;;;;;18.65;AR-AR;;;;;;;;;;;;;;;;
2016;[20721] CONTE A. M. (2016);samp. S17;;APENNINIC-MAGHREBIDES CHAIN / APENNINE / CAMPANIAN VOLCANIC PROVINCE / PONTINE ISLANDS - VENTOTENE ISLAND;WESTERN PONTINE ARCHIPELAGO, PALMAROLA ISLAND, OFFSHORE;40.937;12.858;40.937;12.858;;;dive;;;SUBAQUATIC;VOLCANIC ROCK;TRACHYDACITE;;HIGH-K CALCALKALINE;;;PLIOCENE;;;;;WHOLE ROCK;;;;;;;;;;;;;66.99;0.43;;;15.08;;;;;;;;;3.46;;;;3.4;1.33;0.05;;;;;;;4.46;ICPAES;;;3.06;0.1;;;;;;;;;;;;;;1.52;;;;;;;;;;;;;;;;;;;;;;;;;;;;;;;;;42;0;;;6;0;;;;;;;;212.6;ICPMS;;;299.9;ICPMS;;;21.5;ICPMS;;;201.6;ICPMS;;;12.7;ICPMS;;;;;;;;;;;;;14;523.1;ICPMS;;;42.5;ICPMS;;;72.6;ICPMS;;;7.2;24.6;ICPMS;;;4.2;ICPMS;;;0.9;3.4;0.6;3.4;0.7;2.1;0.3;2.1;0.3;5.3;1.3;;;;;;;;42.7;ICPMS;;;;;19.8;ICPMS;;;4.6;0.512164;;;;;0.710744;;;;;;;;;;;;;;;;;;;;;;;;;;;;;;;;;;;;;;;;;;;;;;;;;;;;;;;;;;;;;;;;;;;;;;;;;;
2016;[20721] CONTE A. M. (2016);samp. S22;;APENNINIC-MAGHREBIDES CHAIN / APENNINE / CAMPANIAN VOLCANIC PROVINCE / PONTINE ISLANDS - VENTOTENE ISLAND;WESTERN PONTINE ARCHIPELAGO, PALMAROLA ISLAND, OFFSHORE;40.937;12.858;40.937;12.858;;;dive;;;SUBAQUATIC;VOLCANIC ROCK;TRACHYDACITE;;HIGH-K CALCALKALINE;;;PLIOCENE;;;;;WHOLE ROCK;;;;;;;;;;;;;67.95;0.37;;;15.21;;;;;;;;;2.71;;;;2.98;0.87;0.03;;;;;;;4.74;ICPAES;;;3.26;0.07;;;;;;;;;;;;;;1.72;;;;;;;;;;;;;;;;;;;;;;;;;;;;;;;;;31;0;;;5;0;;;;;;;;216;ICPMS;;;289;ICPMS;;;17;ICPMS;;;186;ICPMS;;;13;ICPMS;;;;;;;;;;;;;12.6;487;ICPMS;;;48.9;ICPMS;;;81.4;ICPMS;;;8.3;27.4;ICPMS;;;4.5;ICPMS;;;0.8;3.3;0.5;3;0.6;1.8;0.3;1.9;0.4;4.6;1.4;;;;;;;;38;ICPMS;;;;;21.6;ICPMS;;;4.6;0.512151;;;;;0.710887;;;;;;;;;;;;;;;;;;;;;;;;;;;;;;;;;;;;;;;;;;;;;;;;;;;;;;;;;;;;;;;;;;;;;;;;;;
2016;[20721] CONTE A. M. (2016);samp. S27;;APENNINIC-MAGHREBIDES CHAIN / APENNINE / CAMPANIAN VOLCANIC PROVINCE / PONTINE ISLANDS - VENTOTENE ISLAND;WESTERN PONTINE ARCHIPELAGO, PALMAROLA ISLAND, OFFSHORE;40.937;12.858;40.937;12.858;;;dive;;;SUBAQUATIC;VOLCANIC ROCK;TRACHYDACITE;;HIGH-K CALCALKALINE;;;PLIOCENE;;;;;WHOLE ROCK;;;;;;;;;;;;;68.57;0.38;;;14.88;;;;;;;;;3.19;;;;2.68;1.08;0.04;;;;;;;4.53;ICPAES;;;2.98;0.09;;;;;;;;;;;;;;1.55;;;;;;;;;;;;;;;;;;;;;;;;;;;;;;;;;34.3;0;;;4.7;0;;;;;;;;212.8;ICPMS;;;267.6;ICPMS;;;19.9;ICPMS;;;179.3;ICPMS;;;12.5;ICPMS;;;;;;;;;;;;;13.5;520;ICPMS;;;34.8;ICPMS;;;60.6;ICPMS;;;6;20.8;ICPMS;;;3.7;ICPMS;;;0.8;3;0.5;3;0.7;2;0.3;2.1;0.3;4.8;1.3;;;;;;;;41.7;ICPMS;;;;;19.6;ICPMS;;;4.9;;;;;;;;;;;;;;;;;;;;;;;;;;;;;;;;;;;;;;;;;;;;;;;;;;;;;;;;;;;;;;;;;;;;;;;;;;;;;;;;
2016;[20721] CONTE A. M. (2016);samp. BDG96;;APENNINIC-MAGHREBIDES CHAIN / APENNINE / CAMPANIAN VOLCANIC PROVINCE / PONTINE ISLANDS - VENTOTENE ISLAND;WESTERN PONTINE ARCHIPELAGO, SHOAL, 0.9 KM W PALMAROLA;40.93043;12.83838;40.93049;12.84227;;;DRILL HOLE ;24;43;SUBAQUATIC;VOLCANIC ROCK;TRACHYDACITE;PORPHYRITIC;HIGH-K CALCALKALINE;;;;;;;;WHOLE ROCK;;;;;;;;;;;;;67.2;0.37;;;13.21;;;;;;;;;2.61;;;;4.1;1.84;0.04;;;;;;;4.32;ICPAES;;;3.22;0.09;;;;;;;;;;;;;;2.98;;;;;;;;;;;;;;;;;;;;;;;;;;;;;;;;;9;0;;;2;0;;;;;;;;193;ICPMS;;;114;ICPMS;;;20;ICPMS;;;163;ICPMS;;;11;ICPMS;;;;;;;;;;;;;20.2;563;ICPMS;;;37.5;ICPMS;;;66;ICPMS;;;6.4;21.1;ICPMS;;;3.5;ICPMS;;;0.4;2.6;0.5;3.1;0.6;2.1;0.3;2.3;0.4;4.6;1.3;;;;;;;;40;ICPMS;;;;;27.8;ICPMS;;;6.4;;;;;;;;;;;;;;;;;;;;;;;;;;;;;;;;;;;;;;;;;;;;;;;;;;;;;;;;;;;;;;;;;;;;;;;;;;;;;;;;
2016;[20721] CONTE A. M. (2016);samp. S27;;APENNINIC-MAGHREBIDES CHAIN / APENNINE / CAMPANIAN VOLCANIC PROVINCE / PONTINE ISLANDS - VENTOTENE ISLAND;WESTERN PONTINE ARCHIPELAGO, PALMAROLA ISLAND, OFFSHORE;40.937;12.858;40.937;12.858;;;dive;;;SUBAQUATIC;VOLCANIC ROCK;TRACHYDACITE;;HIGH-K CALCALKALINE;;;PLIOCENE;;;;;MINERAL / COMPONENT (INCL. GROUNDMASS);BIOTITE;;;;PRIMARY;;;;;;;;;;;;;;;;;;;;;;;;;;;;;;;;;;;;;;;;;;;;;;;;;;;;;;;;;;;;;;;;;;;;;;;;;;;;;;;;;;;;;;;;;;;;;;;;;;;;;;;;;;;;;;;;;;;;;;;;;;;;;;;;;;;;;;;;;;;;;;;;;;;;;;;;;;;;;;;;;;;;;;;;;;;;;;;;;;;;;;;;;;;;;;;;;;;;;;;;;;;;;;;;;;;;;;;;;;;;;;;;;;;;;;;;;;;;;;;;;;3.88;AR-AR;3.86;AR-AR;;;;;;;;;;;;;;
2017;[20736] LIU DONG(2017)  [GeoReM [10597] ];samp. CZ1305;;CENTRAL ASIAN FOLDBELT - CENOZOIC/QUATERNARY / CHINA - CENOZOIC/QUATERNARY / TIBET;CHAZI;29.8467;86.7467;29.8467;86.7467;5260;5260;OUTCROP;;;SUBAERIAL;VOLCANIC ROCK;TRACHYDACITE;;;;;MIOCENE;;;;;WHOLE ROCK;;;;;;;;;;;;;65.9;0.77;;;12.2;;;;;;;;;2.93;;;;1.82;3.45;0.05;;;;;;;8.5;XRF;;;1.24;0.61;;;;;;;;;;;;;;2.22;;;;;;;;110;18.3;;;;;;;;;;;;;;;;7.89;Q_ICPMS;;;;;;;55.2;201;;;11.5;140;23.8;51;20.3;;;;;686;Q_ICPMS;;;523;Q_ICPMS;;;22.9;Q_ICPMS;;;407;Q_ICPMS;;;36.1;Q_ICPMS;;;;;;;;;;;;;206;1536;Q_ICPMS;;;100;Q_ICPMS;;;204;Q_ICPMS;;;26.8;108;Q_ICPMS;;;20.1;Q_ICPMS;;;3.05;11;1.21;5.19;0.74;1.77;0.23;1.46;0.2;12.4;2.23;;;;;;;;107;Q_ICPMS;;;;;151;Q_ICPMS;;;31.6;;;;;;;;;;;;;;;;;;;;;;;;;;;;;;;;;;;;;;;;;;;;;;;;;;;;;;;;;;;;;;;;;;;;;;;;;;;;;;;;
2017;[20736] LIU DONG(2017)  [GeoReM [10597] ];samp. YR1101;;CENTRAL ASIAN FOLDBELT - CENOZOIC/QUATERNARY / CHINA - CENOZOIC/QUATERNARY / TIBET;YARE;31.9347;81.1238;31.9347;81.1238;4906;4906;OUTCROP;;;SUBAERIAL;VOLCANIC ROCK;TRACHYDACITE;;;;;MIOCENE;;;;;WHOLE ROCK;;;;;;;;;;;;;67;0.6;;;16.1;;;;;;;;;3.18;;;;1.2;0.79;0.02;;;;;;;5.78;XRF;;;2.62;0.17;;;;;;;;;;;;;;2.09;;;;;;;;48.9;6.91;;;;;;;;;;;;;;;;5.73;Q_ICPMS;;;;;;;43.7;22.4;;;4.57;5.82;7.53;59.5;32.9;;;;;437;Q_ICPMS;;;142;Q_ICPMS;;;14.1;Q_ICPMS;;;315;Q_ICPMS;;;10.7;Q_ICPMS;;;;;;;;;;;;;19.8;549;Q_ICPMS;;;93.1;Q_ICPMS;;;192;Q_ICPMS;;;21.1;76.6;Q_ICPMS;;;11.9;Q_ICPMS;;;1.3;6.61;0.67;2.96;0.47;1.19;0.16;1.09;0.14;9.08;0.77;;;;;;;;47.7;Q_ICPMS;;;;;45.5;Q_ICPMS;;;9.54;0.511969;;;;;0.727566;;;;;;;;;;;;;;;;;;;;;;;;;;;;;;;;;;;;;;;;;;;;;;;;;;;;;;;;;;;;;;;;;;;;;;;;;;
2017;[20736] LIU DONG(2017)  [GeoReM [10597] ];samp. YR1102;;CENTRAL ASIAN FOLDBELT - CENOZOIC/QUATERNARY / CHINA - CENOZOIC/QUATERNARY / TIBET;YARE;31.905;81.17;31.905;81.17;4900;4900;OUTCROP;;;SUBAERIAL;VOLCANIC ROCK;TRACHYDACITE;;;;;MIOCENE;;;;;WHOLE ROCK;;;;;;;;;;;;;68.1;0.61;;;16.2;;;;;;;;;2.55;;;;1.8;0.84;0.02;;;;;;;5.13;XRF;;;3.21;0.18;;;;;;;;;;;;;;1.51;;;;;;;;44.6;7.2;;;;;;;;;;;;;;;;5.99;Q_ICPMS;;;;;;;50.2;20.5;;;4.25;4.55;9.39;71.8;33.6;;;;;413;Q_ICPMS;;;229;Q_ICPMS;;;15;Q_ICPMS;;;320;Q_ICPMS;;;10.7;Q_ICPMS;;;;;;;;;;;;;24.9;1167;Q_ICPMS;;;99;Q_ICPMS;;;195;Q_ICPMS;;;22;80.1;Q_ICPMS;;;12.4;Q_ICPMS;;;1.4;6.9;0.69;3.03;0.52;1.34;0.17;1.11;0.15;9.36;0.77;;;;;;;;47.5;Q_ICPMS;;;;;47.3;Q_ICPMS;;;9.9;;;;;;;;;;;;;;;;;;;;;;;;;;;;;;;;;;;;;;;;;;;;;;;;;;;;;;;;;;;;;;;;;;;;;;;;;;;;;;;;
2017;[20736] LIU DONG(2017)  [GeoReM [10597] ];samp. YR1103;;CENTRAL ASIAN FOLDBELT - CENOZOIC/QUATERNARY / CHINA - CENOZOIC/QUATERNARY / TIBET;YARE;31.905;81.17;31.905;81.17;4900;4900;OUTCROP;;;SUBAERIAL;VOLCANIC ROCK;TRACHYDACITE;;;;;MIOCENE;;;;;WHOLE ROCK;;;;;;;;;;;;;67.2;0.58;;;16.2;;;;;;;;;2.75;;;;2.23;0.87;0.03;;;;;;;5.01;XRF;;;3.64;0.18;;;;;;;;;;;;;;0.98;;;;;;;;62.1;7.2;;;;;;;;;;;;;;;;6.32;Q_ICPMS;;;;;;;47.5;27;;;5.58;7.51;11.9;72.8;33.7;;;;;392;Q_ICPMS;;;282;Q_ICPMS;;;13;Q_ICPMS;;;324;Q_ICPMS;;;10.9;Q_ICPMS;;;;;;;;;;;;;19.9;1236;Q_ICPMS;;;98.4;Q_ICPMS;;;197;Q_ICPMS;;;22.1;78;Q_ICPMS;;;12.2;Q_ICPMS;;;1.4;6.25;0.63;2.85;0.44;1.13;0.16;1.02;0.13;9.42;0.77;;;;;;;;52.7;Q_ICPMS;;;;;47;Q_ICPMS;;;9.74;0.511968;;;;;0.725098;;;;;;;;;;;;;;;;;;;;;;;;;;;;;;;;;;;;;;;;;;;;;;;;;;;;;;;;;;;;;;;;;;;;;;;;;;