Year;CITATION;SAMPLE NAME;UNIQUE_ID;LOCATION;LOCATION COMMENT;LATITUDE (MIN.);LONGITUDE (MIN.);LATITUDE (MAX.);LONGITUDE (MAX.);ELEVATION (MIN.);ELEVATION (MAX.);SAMPLING TECHNIQUE;DRILLING DEPTH (MIN.);DRILLING DEPTH (MAX.);LAND/SEA (SAMPLING);ROCK TYPE;ROCK NAME;ROCK TEXTURE;SAMPLE COMMENT;AGE (MIN.);AGE (MAX.);GEOLOGICAL AGE;GEOLOGICAL AGE PREFIX;ERUPTION YEAR;ALTERATION;ALTERATION TYPE;TYPE OF MATERIAL;MINERAL / COMPONENT;SPOT (MINERAL);CRYSTAL;RIM / CORE (MINERAL GRAINS);PRIMARY/SECONDARY;INCLUSION TYPE;SPOT (INCLUSION);MINERAL (INCLUSION);RIM / CORE (INCLUSION);HOSTMINERAL (INCLUSION);HEATING;HEATING TEMPERATURE (?C);SIO2(WT%);TIO2(WT%);ZRO2(WT%);B2O3(WT%);AL2O3(WT%);CR2O3(WT%);LA2O3(WT%);CE2O3(WT%);Y2O3(WT%);V2O3(WT%);NB2O3(WT%);TA2O5(WT%);WO3(WT%);FE2O3T(WT%);FE2O3(WT%);FEOT(WT%);FEO(WT%);CAO(WT%);MGO(WT%);MNO(WT%);BAO(WT%);SRO(WT%);NIO(WT%);ZNO(WT%);CS2O(WT%);RB2O(WT%);K2O(WT%);;;;NA2O(WT%);P2O5(WT%);H2O(WT%);;;;H2OP(WT%);H2OM(WT%);CO2(WT%);C(WT%);F(WT%);CL(WT%);SO2(WT%);SO3(WT%);S(WT%);LOI(WT%);AL(WT%);TI(WT%);FE(WT%);MG(WT%);CA(WT%);K(WT%);NA(WT%);LI(PPM);BE(PPM);B(PPM);C(PPM);F(PPM);NA(PPM);MG(PPM);AL(PPM);P(PPM);S(PPM);CL(PPM);AR40(AT/G);AR40(CCMSTP/G);AR40(MOL/G);AR40(PPB);K(PPM);CA(PPM);SC(PPM);;;;TI(PPM);;;;V(PPM);CR(PPM);MN(PPM);FE(PPM);CO(PPM);NI(PPM);CU(PPM);ZN(PPM);GA(PPM);GE(PPM);AS(PPM);SE(PPM);BR(PPM);RB(PPM): altern. values or methods;;;;SR(PPM): altern. values or methods;;;;Y(PPM): altern. values or methods;;;;ZR(PPM): altern. values or methods;;;;NB(PPM): altern. values or methods;;;;MO(PPM): altern. values or methods;;;;AG(PPM);CD(PPM);IN(PPM);SN(PPM);SB(PPM);TE(PPM);CS(PPM);BA(PPM): altern. values or methods;;;;LA(PPM): altern. values or methods;;;;CE(PPM): altern. values or methods;;;;PR(PPM);ND(PPM): altern. values or methods;;;;SM(PPM): altern. values or methods;;;;EU(PPM);GD(PPM);TB(PPM);DY(PPM);HO(PPM);ER(PPM);TM(PPM);YB(PPM);LU(PPM);HF(PPM);TA(PPM);W(PPM);RE(PPM);AU(PPM);AU(PPB);HG(PPM);HG(PPB);TL(PPM);PB(PPM): altern. values or methods;;;;PB206(PPM);BI(PPM);TH(PPM): altern. values or methods;;;;U(PPM);ND143_ND144;ND143_ND144_INI;EPSILON_ND;EPSILON_ND_INI;SM147_ND144;SR87_SR86;SR87_SR86_INI;EPSILON_SR;EPSILON_SR_INI;RB87_SR86;PB206_PB204;PB206_PB204_INI;PB206_PB207;PB206_PB208;PB207_PB204;PB207_PB204_INI;PB207_PB206;PB208_PB204;PB208_PB204_INI;PB208_PB206;HF176_HF177;HF176_HF177_INI;EPSILON_HF_INI;LU176_HF177;YB176_HF177;AR36_AR39;AR36_AR40;AR37_AR39;AR38_AR39;AR39_AR40;AR40_AR36;AR40_AR39;PB206_U238;PB207_U235;PB208_TH232;TH232_PB204;TH232_U238;U235_PB204;U238_PB204;U238_PB206;D7LI(VS LSVEC);D18O(PER MIL);D18O(VS SMOW);D18O(VS VSMOW);D56FE(VS IRMM-014);D57FE(VS IRMM-014);DD(VS SMOW);ALBITE(MOL%);ANORTHITE(MOL%);CA OLIVINE(MOL%);ENSTATITE(MOL%);FAYALITE(MOL%);FORSTERITE(MOL%);FERROSILITE(MOL%);ORTHOCLASE(MOL%);TEPHROITE(MOL%);ULVOSPINEL(MOL%);WOLLASTONITE(MOL%);AGE(KA): altern. values or methods;;;;AGE(MA): altern. values or methods;;;;;;;;AGE_PB207_PB206(MA);AGE_PB207_U235(MA);AGE_PB206_U238(MA): altern. values or methods;;;;;;AGE_PB208_TH232(MA);
2011;[15549] ANDREEVA I. A. (2011);samp. TRACHYDACITE;;CENTRAL ASIAN FOLDBELT - PALEOZOIC / MONGOLIA - PALEOZOIC / CENTRAL MONGOLIA / DZARTA-KUDUK PALEOVOLCANO;;48;110;48;110;;;OUTCROP;;;SUBAERIAL;VOLCANIC ROCK;TRACHYDACITE;PORPHYRITIC, TRACHYTOID GROUNDMASS;;211000000;211000000;TRIASSIC;;;;;MINERAL / COMPONENT (INCL. GROUNDMASS);ANORTHOCLASE;;;;PRIMARY;;;;;;;;67.09;0.01;;;18.79;;;;;;;;;;;0.54;;0;0;;0.01;0.04;;;;;5.95;EMP (EPMA);;;7.46;;;;;;;;;;;;;;;;;;;;;;;;;;;;;;;;;;;;;;;;;;;;;;;;;;;;;;;;;;;;;;;;;;;;;;;;;;;;;;;;;;;;;;;;;;;;;;;;;;;;;;;;;;;;;;;;;;;;;;;;;;;;;;;;;;;;;;;;;;;;;;;;;;;;;;;;;;;;;;;;;;;;;;;;;;;;;;;;;;;;;;;;;;;;;;;;;;;;;;;;;;;;;;;;;;;;;;;;;;;;;
2011;[15549] ANDREEVA I. A. (2011);samp. TRACHYDACITE;;CENTRAL ASIAN FOLDBELT - PALEOZOIC / MONGOLIA - PALEOZOIC / CENTRAL MONGOLIA / DZARTA-KUDUK PALEOVOLCANO;;48;110;48;110;;;OUTCROP;;;SUBAERIAL;VOLCANIC ROCK;TRACHYDACITE;PORPHYRITIC, TRACHYTOID GROUNDMASS;;211000000;211000000;TRIASSIC;;;;;MINERAL / COMPONENT (INCL. GROUNDMASS);ARFVEDSONITE;;;;PRIMARY;;;;;;;;48.88;3.93;;;0.43;;;;;;;;;;;32.5;;3.01;0.05;0.79;0;0;;;;;1.45;EMP (EPMA);;;6.8;;;;;;;;;;3.33;;;;;;;;;;;;;;;;;;;;;;;;;;;;;;;;;;;;;;;;;;;;;;;;;;;;;;;;;;;;;;;;;;;;;;;;;;;;;;;;;;;;;;;;;;;;;;;;;;;;;;;;;;;;;;;;;;;;;;;;;;;;;;;;;;;;;;;;;;;;;;;;;;;;;;;;;;;;;;;;;;;;;;;;;;;;;;;;;;;;;;;;;;;;;;;;;;;;;;;;;;;;;;;;;;;
2011;[15549] ANDREEVA I. A. (2011);samp. TRACHYDACITE;;CENTRAL ASIAN FOLDBELT - PALEOZOIC / MONGOLIA - PALEOZOIC / CENTRAL MONGOLIA / DZARTA-KUDUK PALEOVOLCANO;;48;110;48;110;;;OUTCROP;;;SUBAERIAL;VOLCANIC ROCK;TRACHYDACITE;PORPHYRITIC, TRACHYTOID GROUNDMASS;;211000000;211000000;TRIASSIC;;;;;MINERAL / COMPONENT (INCL. GROUNDMASS);TITANO-MAGNETITE;;;;PRIMARY;;;;;;;;0.18;26.38;;;0.09;;;;;;;;;;;54.47;;0.03;0.02;1.76;0.26;0;;11.03;;;0;EMP (EPMA);;;0.31;;;;;;;;;;;;;;;;;;;;;;;;;;;;;;;;;;;;;;;;;;;;;;;;;;;;;;;;;;;;;;;;;;;;;;;;;;;;;;;;;;;;;;;;;;;;;;;;;;;;;;;;;;;;;;;;;;;;;;;;;;;;;;;;;;;;;;;;;;;;;;;;;;;;;;;;;;;;;;;;;;;;;;;;;;;;;;;;;;;;;;;;;;;;;;;;;;;;;;;;;;;;;;;;;;;;;;;;;;;;;
2011;[15549] ANDREEVA I. A. (2011);samp. TRACHYDACITE;;CENTRAL ASIAN FOLDBELT - PALEOZOIC / MONGOLIA - PALEOZOIC / CENTRAL MONGOLIA / DZARTA-KUDUK PALEOVOLCANO;;48;110;48;110;;;OUTCROP;;;SUBAERIAL;VOLCANIC ROCK;TRACHYDACITE;PORPHYRITIC, TRACHYTOID GROUNDMASS;;211000000;211000000;TRIASSIC;;;;;MINERAL / COMPONENT (INCL. GROUNDMASS);TITANO-MAGNETITE;;;;PRIMARY;;;;;;;;0.28;29.28;;;0.07;;;;;;;;;;;50.15;;0.04;0;1.41;0.13;0;;12.52;;;0;EMP (EPMA);;;0.3;;;;;;;;;;;;;;;;;;;;;;;;;;;;;;;;;;;;;;;;;;;;;;;;;;;;;;;;;;;;;;;;;;;;;;;;;;;;;;;;;;;;;;;;;;;;;;;;;;;;;;;;;;;;;;;;;;;;;;;;;;;;;;;;;;;;;;;;;;;;;;;;;;;;;;;;;;;;;;;;;;;;;;;;;;;;;;;;;;;;;;;;;;;;;;;;;;;;;;;;;;;;;;;;;;;;;;;;;;;;;
2011;[15549] ANDREEVA I. A. (2011);samp. TRACHYDACITE;;CENTRAL ASIAN FOLDBELT - PALEOZOIC / MONGOLIA - PALEOZOIC / CENTRAL MONGOLIA / DZARTA-KUDUK PALEOVOLCANO;;48;110;48;110;;;OUTCROP;;;SUBAERIAL;VOLCANIC ROCK;TRACHYDACITE;PORPHYRITIC, TRACHYTOID GROUNDMASS;;211000000;211000000;TRIASSIC;;;;;MINERAL / COMPONENT (INCL. GROUNDMASS);TITANO-MAGNETITE;;;;PRIMARY;;;;;;;;0.21;27.1;;;0.04;;;;;;;;;;;52.34;;0;0;1.42;0.22;0;;13.19;;;0;EMP (EPMA);;;0.27;;;;;;;;;;;;;;;;;;;;;;;;;;;;;;;;;;;;;;;;;;;;;;;;;;;;;;;;;;;;;;;;;;;;;;;;;;;;;;;;;;;;;;;;;;;;;;;;;;;;;;;;;;;;;;;;;;;;;;;;;;;;;;;;;;;;;;;;;;;;;;;;;;;;;;;;;;;;;;;;;;;;;;;;;;;;;;;;;;;;;;;;;;;;;;;;;;;;;;;;;;;;;;;;;;;;;;;;;;;;;
2011;[15549] ANDREEVA I. A. (2011);samp. TRACHYDACITE;;CENTRAL ASIAN FOLDBELT - PALEOZOIC / MONGOLIA - PALEOZOIC / CENTRAL MONGOLIA / DZARTA-KUDUK PALEOVOLCANO;;48;110;48;110;;;OUTCROP;;;SUBAERIAL;VOLCANIC ROCK;TRACHYDACITE;PORPHYRITIC, TRACHYTOID GROUNDMASS;;211000000;211000000;TRIASSIC;;;;;INCLUSION;;;;;;MINERAL INCLUSION;;HEDENBERGITE;;MELT;FALSE;;48.29;0.62;;;0.31;;;;;;;;;;;29.77;;18.92;0.27;1.07;0.07;0.01;;;;;0.08;EMP (EPMA);;;0.85;;;;;;;;;;0.68;0;;;0;;;;;;;;;;;;;;;;;;;;;;;;;;;;;;;;;;;;;;;;;;;;;;;;;;;;;;;;;;;;;;;;;;;;;;;;;;;;;;;;;;;;;;;;;;;;;;;;;;;;;;;;;;;;;;;;;;;;;;;;;;;;;;;;;;;;;;;;;;;;;;;;;;;;;;;;;;;;;;;;;;;;;;;;;;;;;;;;;;;;;;;;;;;;;;;;;;;;;;;;;;;;;;;
2011;[15549] ANDREEVA I. A. (2011);samp. TRACHYDACITE;;CENTRAL ASIAN FOLDBELT - PALEOZOIC / MONGOLIA - PALEOZOIC / CENTRAL MONGOLIA / DZARTA-KUDUK PALEOVOLCANO;;48;110;48;110;;;OUTCROP;;;SUBAERIAL;VOLCANIC ROCK;TRACHYDACITE;PORPHYRITIC, TRACHYTOID GROUNDMASS;;211000000;211000000;TRIASSIC;;;;;INCLUSION;;;;;;MINERAL INCLUSION;;APATITE;;MELT;FALSE;;2.35;0;;;0.04;;0.9;2.18;0.7;;;;;;;0.3;;50.01;0;0.05;0.04;0;;;;;0.07;EMP (EPMA);;;0.19;38.04;;;;;;;;;6.19;0.01;;;0;;;;;;;;;;;;;;;;;;;;;;;;;;;;;;;;;;;;;;;;;;;;;;;;;;;;;;;;;;;;;;;;;;;;;;;;;;;;;;;;;;;;;;;;;;;;;;;;;;;;;;;;;;;;;;;;;;;;;;;;;;;;;;;;;;;;;;;;;;;;;;;;;;;;;;;;;;;;;;;;;;;;;;;;;;;;;;;;;;;;;;;;;;;;;;;;;;;;;;;;;;;;;;;
2011;[15549] ANDREEVA I. A. (2011);samp. TRACHYDACITE;;CENTRAL ASIAN FOLDBELT - PALEOZOIC / MONGOLIA - PALEOZOIC / CENTRAL MONGOLIA / DZARTA-KUDUK PALEOVOLCANO;;48;110;48;110;;;OUTCROP;;;SUBAERIAL;VOLCANIC ROCK;TRACHYDACITE;PORPHYRITIC, TRACHYTOID GROUNDMASS;;211000000;211000000;TRIASSIC;;;;;INCLUSION;;;;;;MINERAL INCLUSION;;PYRRHOTITE;;MELT;FALSE;;;;;;;;;;;;;;;;;62.07;;;;;;;;;;;;;;;;;;;;;;;;;;;;;36.59;;;;;;;;;;;;;;;;;;;;;;;;;;;;;;;;;;;;;;;;;;;;;;;;;;;;;;;;;;;;;;;;;;;;;;;;;;;;;;;;;;;;;;;;;;;;;;;;;;;;;;;;;;;;;;;;;;;;;;;;;;;;;;;;;;;;;;;;;;;;;;;;;;;;;;;;;;;;;;;;;;;;;;;;;;;;;;;;;;;;;;;;;;;;;;;;;;;;;;;;;;;;;;;
2011;[15549] ANDREEVA I. A. (2011);samp. TRACHYDACITE;;CENTRAL ASIAN FOLDBELT - PALEOZOIC / MONGOLIA - PALEOZOIC / CENTRAL MONGOLIA / DZARTA-KUDUK PALEOVOLCANO;;48;110;48;110;;;OUTCROP;;;SUBAERIAL;VOLCANIC ROCK;TRACHYDACITE;PORPHYRITIC, TRACHYTOID GROUNDMASS;;211000000;211000000;TRIASSIC;;;;;INCLUSION;;;;;;MINERAL INCLUSION;;ANORTHOCLASE;RIM;MELT;FALSE;;67.12;0.03;;;18.29;;;;;;;;;;;1.63;;0.04;0.02;0.02;0.05;0;;;;;6.05;EMP (EPMA);;;7.32;;;;;;;;;;;;;;;;;;;;;;;;;;;;;;;;;;;;;;;;;;;;;;;;;;;;;;;;;;;;;;;;;;;;;;;;;;;;;;;;;;;;;;;;;;;;;;;;;;;;;;;;;;;;;;;;;;;;;;;;;;;;;;;;;;;;;;;;;;;;;;;;;;;;;;;;;;;;;;;;;;;;;;;;;;;;;;;;;;;;;;;;;;;;;;;;;;;;;;;;;;;;;;;;;;;;;;;;;;;;;
2011;[15549] ANDREEVA I. A. (2011);samp. TRACHYDACITE;;CENTRAL ASIAN FOLDBELT - PALEOZOIC / MONGOLIA - PALEOZOIC / CENTRAL MONGOLIA / DZARTA-KUDUK PALEOVOLCANO;;48;110;48;110;;;OUTCROP;;;SUBAERIAL;VOLCANIC ROCK;TRACHYDACITE;PORPHYRITIC, TRACHYTOID GROUNDMASS;;211000000;211000000;TRIASSIC;;;;;INCLUSION;;;;;;MINERAL INCLUSION;;ANORTHOCLASE;RIM;MELT;FALSE;;66.57;0.02;;;18.02;;;;;;;;;;;2.47;;0.03;0.01;0.01;0.05;0.05;;;;;6.02;EMP (EPMA);;;7.38;;;;;;;;;;;;;;;;;;;;;;;;;;;;;;;;;;;;;;;;;;;;;;;;;;;;;;;;;;;;;;;;;;;;;;;;;;;;;;;;;;;;;;;;;;;;;;;;;;;;;;;;;;;;;;;;;;;;;;;;;;;;;;;;;;;;;;;;;;;;;;;;;;;;;;;;;;;;;;;;;;;;;;;;;;;;;;;;;;;;;;;;;;;;;;;;;;;;;;;;;;;;;;;;;;;;;;;;;;;;;
2011;[15549] ANDREEVA I. A. (2011);samp. TRACHYDACITE;;CENTRAL ASIAN FOLDBELT - PALEOZOIC / MONGOLIA - PALEOZOIC / CENTRAL MONGOLIA / DZARTA-KUDUK PALEOVOLCANO;;48;110;48;110;;;OUTCROP;;;SUBAERIAL;VOLCANIC ROCK;TRACHYDACITE;PORPHYRITIC, TRACHYTOID GROUNDMASS;;211000000;211000000;TRIASSIC;;;;;INCLUSION;;;;;;MINERAL INCLUSION;;FLUORITE;;MELT;FALSE;;;;;;;;0.07;0.21;;;;;;;;;;50.26;;;;;;;;;;;;;;;;;;;;;;;48.18;;;;;;;;;;;;;;;;;;;;;;;;;;;;;;;;;;;;;;;;;;;;;;;;;;;;;;;;;;;;;;;;;;;;;;;;;;;;;;;;;;;;;;;;;;;;;;;;;;;;;;;;;;;;;;;;;;;;;;;;;;;;;;;;;;;;;;;;;;;;;;;;;;;;;;;;;;;;;;;;;;;;;;;;;;;;;;;;;;;;;;;;;;;;;;;;;;;;;;;;;;;;;;;;;;;
2011;[15549] ANDREEVA I. A. (2011);samp. TRACHYDACITE;;CENTRAL ASIAN FOLDBELT - PALEOZOIC / MONGOLIA - PALEOZOIC / CENTRAL MONGOLIA / DZARTA-KUDUK PALEOVOLCANO;;48;110;48;110;;;OUTCROP;;;SUBAERIAL;VOLCANIC ROCK;TRACHYDACITE;PORPHYRITIC, TRACHYTOID GROUNDMASS;;211000000;211000000;TRIASSIC;;;;;INCLUSION;;;;;;MINERAL INCLUSION;;ARFVEDSONITE;;MELT;FALSE;;49.03;1.28;;;0.6;;0;0;;;;;;;;32.88;;0.23;0.06;0.68;0;0.03;;;;;2.06;EMP (EPMA);;;8.91;0.01;;;;;;;;;5.52;0.12;;;0;;;;;;;;;;;;;;;;;;;;;;;;;;;;;;;;;;;;;;;;;;;;;;;;;;;;;;;;;;;;;;;;;;;;;;;;;;;;;;;;;;;;;;;;;;;;;;;;;;;;;;;;;;;;;;;;;;;;;;;;;;;;;;;;;;;;;;;;;;;;;;;;;;;;;;;;;;;;;;;;;;;;;;;;;;;;;;;;;;;;;;;;;;;;;;;;;;;;;;;;;;;;;;;
2011;[15549] ANDREEVA I. A. (2011);samp. TRACHYDACITE;;CENTRAL ASIAN FOLDBELT - PALEOZOIC / MONGOLIA - PALEOZOIC / CENTRAL MONGOLIA / DZARTA-KUDUK PALEOVOLCANO;;48;110;48;110;;;OUTCROP;;;SUBAERIAL;VOLCANIC ROCK;TRACHYDACITE;PORPHYRITIC, TRACHYTOID GROUNDMASS;;211000000;211000000;TRIASSIC;;;;;INCLUSION;;;;;;MINERAL INCLUSION;;ARFVEDSONITE;;MELT;FALSE;;48.92;2.87;;;0.39;;;0.13;;;;;;;;31.02;;0.22;0.17;0.72;0;0.01;;;;;1.85;EMP (EPMA);;;8.81;;;;;;;;;;5.99;;;;;;;;;;;;;;;;;;;;;;;;;;;;;;;;;;;;;;;;;;;;;;;;;;;;;;;;;;;;;;;;;;;;;;;;;;;;;;;;;;;;;;;;;;;;;;;;;;;;;;;;;;;;;;;;;;;;;;;;;;;;;;;;;;;;;;;;;;;;;;;;;;;;;;;;;;;;;;;;;;;;;;;;;;;;;;;;;;;;;;;;;;;;;;;;;;;;;;;;;;;;;;;;;;;
2011;[15549] ANDREEVA I. A. (2011);samp. TRACHYDACITE;;CENTRAL ASIAN FOLDBELT - PALEOZOIC / MONGOLIA - PALEOZOIC / CENTRAL MONGOLIA / DZARTA-KUDUK PALEOVOLCANO;;48;110;48;110;;;OUTCROP;;;SUBAERIAL;VOLCANIC ROCK;TRACHYDACITE;PORPHYRITIC, TRACHYTOID GROUNDMASS;;211000000;211000000;TRIASSIC;;;;;INCLUSION;;;;;;GLASS INCLUSION;;;;MELT;FALSE;;69.57;1.51;1.2;;1;;0.6;0.19;;;;;;;;17.79;;0.06;0.03;0.59;0.09;0.04;;;;;3.06;EMP (EPMA);;;2.56;0.06;;;;;;;;;0.98;0.55;;;0.12;;;;;;;;;;;;;;;;;;;;;;;;;;;;;;;;;;;;;;;;;;;;;;;;;;;;;;;;;;;;;;;;;;;;;;;;;;;;;;;;;;;;;;;;;;;;;;;;;;;;;;;;;;;;;;;;;;;;;;;;;;;;;;;;;;;;;;;;;;;;;;;;;;;;;;;;;;;;;;;;;;;;;;;;;;;;;;;;;;;;;;;;;;;;;;;;;;;;;;;;;;;;;;;
2011;[15549] ANDREEVA I. A. (2011);samp. TRACHYDACITE;;CENTRAL ASIAN FOLDBELT - PALEOZOIC / MONGOLIA - PALEOZOIC / CENTRAL MONGOLIA / DZARTA-KUDUK PALEOVOLCANO;;48;110;48;110;;;OUTCROP;;;SUBAERIAL;VOLCANIC ROCK;TRACHYDACITE;PORPHYRITIC, TRACHYTOID GROUNDMASS;;211000000;211000000;TRIASSIC;;;;;INCLUSION;;;;;;GLASS INCLUSION;;;;MELT;FALSE;;68.48;2.23;0.94;;1.07;;0.09;0.22;;;;;;;;16.57;;0.18;0.07;0.58;0.09;0;;;;;3.24;EMP (EPMA);;;3.99;0.02;;;;;;;;;0.9;0.67;;;0.19;;;;;;;;;;;;;;;;;;;;;;;;;;;;;;;;;;;;;;;;;;;;;;;;;;;;;;;;;;;;;;;;;;;;;;;;;;;;;;;;;;;;;;;;;;;;;;;;;;;;;;;;;;;;;;;;;;;;;;;;;;;;;;;;;;;;;;;;;;;;;;;;;;;;;;;;;;;;;;;;;;;;;;;;;;;;;;;;;;;;;;;;;;;;;;;;;;;;;;;;;;;;;;;
2011;[15549] ANDREEVA I. A. (2011);samp. TRACHYDACITE;;CENTRAL ASIAN FOLDBELT - PALEOZOIC / MONGOLIA - PALEOZOIC / CENTRAL MONGOLIA / DZARTA-KUDUK PALEOVOLCANO;;48;110;48;110;;;OUTCROP;;;SUBAERIAL;VOLCANIC ROCK;TRACHYDACITE;PORPHYRITIC, TRACHYTOID GROUNDMASS;;211000000;211000000;TRIASSIC;;;;;INCLUSION;;;;;;GLASS INCLUSION;;;;MELT;FALSE;;68.89;1.97;0.94;;0.96;;0.1;0.19;;;;;;;;17.54;;0.1;0.05;0.72;0.03;0.02;;;;;3.18;EMP (EPMA);;;3.57;0.11;;;;;;;;;0.7;0.68;;;0.15;;;;;;;;;;;;;;;;;;;;;;;;;;;;;;;;;;;;;;;;;;;;;;;;;;;;;;;;;;;;;;;;;;;;;;;;;;;;;;;;;;;;;;;;;;;;;;;;;;;;;;;;;;;;;;;;;;;;;;;;;;;;;;;;;;;;;;;;;;;;;;;;;;;;;;;;;;;;;;;;;;;;;;;;;;;;;;;;;;;;;;;;;;;;;;;;;;;;;;;;;;;;;;;
2011;[15549] ANDREEVA I. A. (2011);samp. TRACHYDACITE;;CENTRAL ASIAN FOLDBELT - PALEOZOIC / MONGOLIA - PALEOZOIC / CENTRAL MONGOLIA / DZARTA-KUDUK PALEOVOLCANO;;48;110;48;110;;;OUTCROP;;;SUBAERIAL;VOLCANIC ROCK;TRACHYDACITE;PORPHYRITIC, TRACHYTOID GROUNDMASS;;211000000;211000000;TRIASSIC;;;;;INCLUSION;;;;;;GLASS INCLUSION;;;;MELT;FALSE;;71.23;1.76;1.04;;1.13;;0.11;0.26;;;;;;;;16.39;;0.07;0.03;0.58;0.05;0;;;;;2.85;EMP (EPMA);;;3.16;;;;;;;;;;0.94;0.65;;;0.15;;;;;;;;;;;;;;;;;;;;;;;;;;;;;;;;;;;;;;;;;;;;;;;;;;;;;;;;;;;;;;;;;;;;;;;;;;;;;;;;;;;;;;;;;;;;;;;;;;;;;;;;;;;;;;;;;;;;;;;;;;;;;;;;;;;;;;;;;;;;;;;;;;;;;;;;;;;;;;;;;;;;;;;;;;;;;;;;;;;;;;;;;;;;;;;;;;;;;;;;;;;;;;;
2011;[15549] ANDREEVA I. A. (2011);samp. TRACHYDACITE;;CENTRAL ASIAN FOLDBELT - PALEOZOIC / MONGOLIA - PALEOZOIC / CENTRAL MONGOLIA / DZARTA-KUDUK PALEOVOLCANO;;48;110;48;110;;;OUTCROP;;;SUBAERIAL;VOLCANIC ROCK;TRACHYDACITE;PORPHYRITIC, TRACHYTOID GROUNDMASS;;211000000;211000000;TRIASSIC;;;;;INCLUSION;;;;;;GLASS INCLUSION;;;;ANORTHOCLASE;FALSE;;65.75;1.42;;;11.52;;;;;;;;;;;7.54;;0.91;0.16;0.14;;;;;;;4.26;WET;;;5.54;0.15;2.29;ICPMS;;;;;;;0.09;;;;;;;;;;;;;;5.9;;;;;;;;;;;;;;;;;;;;;;;;0.6;;;;;;;;;;;;;134;ICPMS;;;138;ICPMS;;;73;ICPMS;;;873;ICPMS;;;52;ICPMS;;;;;;;;;;;;;;170;ICPMS;;;93.4;ICPMS;;;193;ICPMS;;;;95.3;ICPMS;;;18.1;ICPMS;;;2.1;17.5;;15.8;;9.6;;10.2;;21.2;3.6;;;;;;;;27.6;ICPMS;;;;;14;ICPMS;;;1.8;;;;;;;;;;;;;;;;;;;;;;;;;;;;;;;;;;;;;;;;;;;;;;;;;;;;;;;;;;;;;;;;;;;;;;;;;;;;;;;;
2011;[15549] ANDREEVA I. A. (2011);samp. TRACHYDACITE;;CENTRAL ASIAN FOLDBELT - PALEOZOIC / MONGOLIA - PALEOZOIC / CENTRAL MONGOLIA / DZARTA-KUDUK PALEOVOLCANO;;48;110;48;110;;;OUTCROP;;;SUBAERIAL;VOLCANIC ROCK;TRACHYDACITE;PORPHYRITIC, TRACHYTOID GROUNDMASS;;211000000;211000000;TRIASSIC;;;;;INCLUSION;;;;;;GLASS INCLUSION;;;;ANORTHOCLASE;FALSE;;70.26;0.56;;;12.02;;;;;;;;;;;5.92;;0.58;0.02;0.14;;;;;;;4.94;EMP (EPMA);;;4.21;;0.03;SIMS;;;;;;;0.44;0.09;;;;;;;;;;;;574;13;18;;;;;;;;;;;;;;;;;;;;;;;13.7;;;;;;;;;;;;;223;SIMS;;;3;SIMS;;;185;SIMS;;;3116;SIMS;;;128;SIMS;;;;;;;;;;;;;;8.4;SIMS;;;155;SIMS;;;365;SIMS;;;;157;SIMS;;;34.1;SIMS;;;1.2;37.5;;33.6;;24.5;;30;;63.7;9.1;;;;;;;;44;SIMS;;;;;35.2;SIMS;;;8.8;;;;;;;;;;;;;;;;;;;;;;;;;;;;;;;;;;;;;;;;;;;;;;;;;;;;;;;;;;;;;;;;;;;;;;;;;;;;;;;;
2011;[15549] ANDREEVA I. A. (2011);samp. TRACHYDACITE;;CENTRAL ASIAN FOLDBELT - PALEOZOIC / MONGOLIA - PALEOZOIC / CENTRAL MONGOLIA / DZARTA-KUDUK PALEOVOLCANO;;48;110;48;110;;;OUTCROP;;;SUBAERIAL;VOLCANIC ROCK;TRACHYDACITE;PORPHYRITIC, TRACHYTOID GROUNDMASS;;211000000;211000000;TRIASSIC;;;;;INCLUSION;;;;;;GLASS INCLUSION;;;;ANORTHOCLASE;FALSE;;70.23;0.38;;;12.62;;;;;;;;;;;5.25;;0.32;0.02;0.09;;;;;;;5.12;EMP (EPMA);;;5.87;;0.02;SIMS;;;;;;;0.45;0.11;;;;;;;;;;;;299;14.5;19.4;;;;;;;;;;;;;;;;;;;;;;;9.1;;;;;;;;;;;;;201;SIMS;;;1.5;SIMS;;;149;SIMS;;;2067;SIMS;;;97.5;SIMS;;;;;;;;;;;;;;4.4;SIMS;;;131;SIMS;;;282;SIMS;;;;126;SIMS;;;25.3;SIMS;;;0.6;24.5;;25.14;;19;;23.2;;44.1;7.1;;;;;;;;32.5;SIMS;;;;;28.1;SIMS;;;6.7;;;;;;;;;;;;;;;;;;;;;;;;;;;;;;;;;;;;;;;;;;;;;;;;;;;;;;;;;;;;;;;;;;;;;;;;;;;;;;;;
2011;[15549] ANDREEVA I. A. (2011);samp. TRACHYDACITE;;CENTRAL ASIAN FOLDBELT - PALEOZOIC / MONGOLIA - PALEOZOIC / CENTRAL MONGOLIA / DZARTA-KUDUK PALEOVOLCANO;;48;110;48;110;;;OUTCROP;;;SUBAERIAL;VOLCANIC ROCK;TRACHYDACITE;PORPHYRITIC, TRACHYTOID GROUNDMASS;;211000000;211000000;TRIASSIC;;;;;INCLUSION;;;;;;GLASS INCLUSION;;;;ANORTHOCLASE;FALSE;;69.3;0.46;;;13.63;;;;;;;;;;;5.05;;0.44;0.04;0.03;;;;;;;5.29;EMP (EPMA);;;4.13;;0.03;SIMS;;;;;;;0.67;0.12;;;;;;;;;;;;334;10;15.8;;;;;;;;;;;;;;;;;;;;;;;9.5;;;;;;;;;;;;;183;SIMS;;;2.8;SIMS;;;94.8;SIMS;;;1044;SIMS;;;66.1;SIMS;;;;;;;;;;;;;;8;SIMS;;;89.1;SIMS;;;218;SIMS;;;;87.5;SIMS;;;19.2;SIMS;;;0.7;18.5;;16.3;;12;;15.2;;32;4.4;;;;;;;;29.9;SIMS;;;;;20.2;SIMS;;;4.4;;;;;;;;;;;;;;;;;;;;;;;;;;;;;;;;;;;;;;;;;;;;;;;;;;;;;;;;;;;;;;;;;;;;;;;;;;;;;;;;
2011;[15549] ANDREEVA I. A. (2011);samp. TRACHYDACITE;;CENTRAL ASIAN FOLDBELT - PALEOZOIC / MONGOLIA - PALEOZOIC / CENTRAL MONGOLIA / DZARTA-KUDUK PALEOVOLCANO;;48;110;48;110;;;OUTCROP;;;SUBAERIAL;VOLCANIC ROCK;TRACHYDACITE;PORPHYRITIC, TRACHYTOID GROUNDMASS;;211000000;211000000;TRIASSIC;;;;;INCLUSION;;;;;;GLASS INCLUSION;;;;ANORTHOCLASE;FALSE;;68.37;0.74;;;11.94;;;;;;;;;;;6.94;;0.61;0.02;0.27;;;;;;;4.49;EMP (EPMA);;;5.52;;0.06;SIMS;;;;;;;0.49;0.16;;;;;;;;;;;;300;22.2;29.4;;;;;;;;;;;;;;;;;;;;;;;10.7;;;;;;;;;;;;;238;SIMS;;;2.3;SIMS;;;321;SIMS;;;4253;SIMS;;;199;SIMS;;;;;;;;;;;;;;6.9;SIMS;;;275;SIMS;;;612;SIMS;;;;277;SIMS;;;58.2;SIMS;;;1.3;61.6;;55.6;;39.8;;51.3;;90.4;15.1;;;;;;;;81.2;SIMS;;;;;55.8;SIMS;;;12.5;;;;;;;;;;;;;;;;;;;;;;;;;;;;;;;;;;;;;;;;;;;;;;;;;;;;;;;;;;;;;;;;;;;;;;;;;;;;;;;;
2011;[15549] ANDREEVA I. A. (2011);samp. TRACHYDACITE;;CENTRAL ASIAN FOLDBELT - PALEOZOIC / MONGOLIA - PALEOZOIC / CENTRAL MONGOLIA / DZARTA-KUDUK PALEOVOLCANO;;48;110;48;110;;;OUTCROP;;;SUBAERIAL;VOLCANIC ROCK;TRACHYDACITE;PORPHYRITIC, TRACHYTOID GROUNDMASS;;211000000;211000000;TRIASSIC;;;;;INCLUSION;;;;;;GLASS INCLUSION;;;;ANORTHOCLASE;FALSE;;69.08;0.69;;;12.34;;;;;;;;;;;6.32;;0.65;0.03;0.17;;;;;;;4.74;EMP (EPMA);;;4.8;;0.04;SIMS;;;;;;;0.14;0.12;;;;;;;;;;;;539;19.5;25.5;;;;;;;;;;;;;;;;;;;;;;;12.8;;;;;;;;;;;;;233;SIMS;;;2.1;SIMS;;;262;SIMS;;;3927;SIMS;;;164;SIMS;;;;;;;;;;;;;;6.8;SIMS;;;230;SIMS;;;509;SIMS;;;;228;SIMS;;;46.4;SIMS;;;1.2;44.5;;44.2;;31.7;;41.1;;80.2;12.5;;;;;;;;62.1;SIMS;;;;;45.9;SIMS;;;10.6;;;;;;;;;;;;;;;;;;;;;;;;;;;;;;;;;;;;;;;;;;;;;;;;;;;;;;;;;;;;;;;;;;;;;;;;;;;;;;;;
2011;[15549] ANDREEVA I. A. (2011);samp. TRACHYDACITE;;CENTRAL ASIAN FOLDBELT - PALEOZOIC / MONGOLIA - PALEOZOIC / CENTRAL MONGOLIA / DZARTA-KUDUK PALEOVOLCANO;;48;110;48;110;;;OUTCROP;;;SUBAERIAL;VOLCANIC ROCK;TRACHYDACITE;PORPHYRITIC, TRACHYTOID GROUNDMASS;;211000000;211000000;TRIASSIC;;;;;INCLUSION;;;;;;GLASS INCLUSION;;;;ANORTHOCLASE;FALSE;;69.83;0.64;;;12.62;;;;;;;;;;;5.87;;0.47;0.02;0.11;;;;;;;4.96;EMP (EPMA);;;4.68;;0.08;SIMS;;;;;;;0.15;0.18;;;;;;;;;;;;554;24.7;35.8;;;;;;;;;;;;;;;;;;;;;;;10.8;;;;;;;;;;;;;272;SIMS;;;2;SIMS;;;330;SIMS;;;4185;SIMS;;;204;SIMS;;;;;;;;;;;;;;6.5;SIMS;;;301;SIMS;;;654;SIMS;;;;289;SIMS;;;60.4;SIMS;;;1.6;60.4;;62.4;;41.2;;52;;93.1;17;;;;;;;;87.9;SIMS;;;;;52.5;SIMS;;;13.5;;;;;;;;;;;;;;;;;;;;;;;;;;;;;;;;;;;;;;;;;;;;;;;;;;;;;;;;;;;;;;;;;;;;;;;;;;;;;;;;