Year;CITATION;SAMPLE NAME;UNIQUE_ID;LOCATION;LOCATION COMMENT;LATITUDE (MIN.);LONGITUDE (MIN.);LATITUDE (MAX.);LONGITUDE (MAX.);ELEVATION (MIN.);ELEVATION (MAX.);SAMPLING TECHNIQUE;DRILLING DEPTH (MIN.);DRILLING DEPTH (MAX.);LAND/SEA (SAMPLING);ROCK TYPE;ROCK NAME;ROCK TEXTURE;SAMPLE COMMENT;AGE (MIN.);AGE (MAX.);GEOLOGICAL AGE;GEOLOGICAL AGE PREFIX;ERUPTION YEAR;ALTERATION;ALTERATION TYPE;TYPE OF MATERIAL;MINERAL / COMPONENT;SPOT (MINERAL);CRYSTAL;RIM / CORE (MINERAL GRAINS);PRIMARY/SECONDARY;INCLUSION TYPE;SPOT (INCLUSION);MINERAL (INCLUSION);RIM / CORE (INCLUSION);HOSTMINERAL (INCLUSION);HEATING;HEATING TEMPERATURE (?C);SIO2(WT%);TIO2(WT%);ZRO2(WT%);B2O3(WT%);AL2O3(WT%);CR2O3(WT%);LA2O3(WT%);CE2O3(WT%);Y2O3(WT%);V2O3(WT%);NB2O3(WT%);TA2O5(WT%);WO3(WT%);FE2O3T(WT%);FE2O3(WT%);FEOT(WT%);FEO(WT%);CAO(WT%);MGO(WT%);MNO(WT%);BAO(WT%);SRO(WT%);NIO(WT%);ZNO(WT%);CS2O(WT%);RB2O(WT%);K2O(WT%);;;;NA2O(WT%);P2O5(WT%);H2O(WT%);;;;H2OP(WT%);H2OM(WT%);CO2(WT%);C(WT%);F(WT%);CL(WT%);SO2(WT%);SO3(WT%);S(WT%);LOI(WT%);AL(WT%);TI(WT%);FE(WT%);MG(WT%);CA(WT%);K(WT%);NA(WT%);LI(PPM);BE(PPM);B(PPM);C(PPM);F(PPM);NA(PPM);MG(PPM);AL(PPM);P(PPM);S(PPM);CL(PPM);AR40(AT/G);AR40(CCMSTP/G);AR40(MOL/G);AR40(PPB);K(PPM);CA(PPM);SC(PPM);;;;TI(PPM);;;;V(PPM);CR(PPM);MN(PPM);FE(PPM);CO(PPM);NI(PPM);CU(PPM);ZN(PPM);GA(PPM);GE(PPM);AS(PPM);SE(PPM);BR(PPM);RB(PPM): altern. values or methods;;;;SR(PPM): altern. values or methods;;;;Y(PPM): altern. values or methods;;;;ZR(PPM): altern. values or methods;;;;NB(PPM): altern. values or methods;;;;MO(PPM): altern. values or methods;;;;AG(PPM);CD(PPM);IN(PPM);SN(PPM);SB(PPM);TE(PPM);CS(PPM);BA(PPM): altern. values or methods;;;;LA(PPM): altern. values or methods;;;;CE(PPM): altern. values or methods;;;;PR(PPM);ND(PPM): altern. values or methods;;;;SM(PPM): altern. values or methods;;;;EU(PPM);GD(PPM);TB(PPM);DY(PPM);HO(PPM);ER(PPM);TM(PPM);YB(PPM);LU(PPM);HF(PPM);TA(PPM);W(PPM);RE(PPM);AU(PPM);AU(PPB);HG(PPM);HG(PPB);TL(PPM);PB(PPM): altern. values or methods;;;;PB206(PPM);BI(PPM);TH(PPM): altern. values or methods;;;;U(PPM);ND143_ND144;ND143_ND144_INI;EPSILON_ND;EPSILON_ND_INI;SM147_ND144;SR87_SR86;SR87_SR86_INI;EPSILON_SR;EPSILON_SR_INI;RB87_SR86;PB206_PB204;PB206_PB204_INI;PB206_PB207;PB206_PB208;PB207_PB204;PB207_PB204_INI;PB207_PB206;PB208_PB204;PB208_PB204_INI;PB208_PB206;HF176_HF177;HF176_HF177_INI;EPSILON_HF_INI;LU176_HF177;YB176_HF177;AR36_AR39;AR36_AR40;AR37_AR39;AR38_AR39;AR39_AR40;AR40_AR36;AR40_AR39;PB206_U238;PB207_U235;PB208_TH232;TH232_PB204;TH232_U238;U235_PB204;U238_PB204;U238_PB206;D7LI(VS LSVEC);D18O(PER MIL);D18O(VS SMOW);D18O(VS VSMOW);D56FE(VS IRMM-014);D57FE(VS IRMM-014);DD(VS SMOW);ALBITE(MOL%);ANORTHITE(MOL%);CA OLIVINE(MOL%);ENSTATITE(MOL%);FAYALITE(MOL%);FORSTERITE(MOL%);FERROSILITE(MOL%);ORTHOCLASE(MOL%);TEPHROITE(MOL%);ULVOSPINEL(MOL%);WOLLASTONITE(MOL%);AGE(KA): altern. values or methods;;;;AGE(MA): altern. values or methods;;;;;;;;AGE_PB207_PB206(MA);AGE_PB207_U235(MA);AGE_PB206_U238(MA): altern. values or methods;;;;;;AGE_PB208_TH232(MA);
2015;[19629] PERETYAZHKO I. S. (2015);samp. NR-14;;ANATOLIA-IRAN BELT / TURKEY / EASTERN ANATOLIAN VOLCANIC BELT / NEMRUT;;38.6853;42.2243;38.6853;42.2243;;;OUTCROP;;;SUBAERIAL;VOLCANIC ROCK;TRACHYDACITE;;;;;;;;;;MINERAL / COMPONENT (INCL. GROUNDMASS);OLIVINE;;;;PRIMARY;;;;;;;;38.96;;;;;;;;;;;;;;0.85;;21.08;0.24;40.28;0.36;;;;;;;;;;;;;;;;;;;;;;;;;;;;;;;;;;;;;;;;;;;;;;;;;;;;;;;;;;;;;;;;;;;;;;;;;;;;;;;;;;;;;;;;;;;;;;;;;;;;;;;;;;;;;;;;;;;;;;;;;;;;;;;;;;;;;;;;;;;;;;;;;;;;;;;;;;;;;;;;;;;;;;;;;;;;;;;;;;;;;;;;;;;;;;;;;;;;;;;;;;;;;;;;;;;;;;;;;;;;;;;;;;;;;;;;
2015;[19629] PERETYAZHKO I. S. (2015);samp. NR-14;;ANATOLIA-IRAN BELT / TURKEY / EASTERN ANATOLIAN VOLCANIC BELT / NEMRUT;;38.6853;42.2243;38.6853;42.2243;;;OUTCROP;;;SUBAERIAL;VOLCANIC ROCK;TRACHYDACITE;;;;;;;;;;INCLUSION;;;;;;GLASS INCLUSION;;;;OLIVINE;FALSE;;61.51;0.55;;;22;;;;;;;;;;;;2.27;3.08;0.72;;;;;;;;1.52;EMP (EPMA);;;7.92;0.92;;;;;;;;;;;;;;;;;;;;;;;;;;;;;;;;;;;;;;;;;;;;;;;;;;;;;;;;;;;;;;;;;;;;;;;;;;;;;;;;;;;;;;;;;;;;;;;;;;;;;;;;;;;;;;;;;;;;;;;;;;;;;;;;;;;;;;;;;;;;;;;;;;;;;;;;;;;;;;;;;;;;;;;;;;;;;;;;;;;;;;;;;;;;;;;;;;;;;;;;;;;;;;;;;;;;;;;;;;;;
2015;[19630] VORONTSOV A. A. (2015);samp. BAT1/18;;CENTRAL ASIAN FOLDBELT - PALEOZOIC / SIBERIA_PALEOZOIC / MINUSA (MINUSINSK) TROUGH;BATENEV(O) RISE;54;91;54;91;;;OUTCROP;;;SUBAERIAL;VOLCANIC ROCK;TRACHYDACITE;;;;;DEVONIAN;;;;;WHOLE ROCK;;;;;;;;;;;;;67.2;0.63;;;14.31;;;;;;;;;3.91;;;;0.64;0.41;0.09;;;;;;;4.87;XRF;;;5.18;0.11;;;;;;;;;;;;;;2.54;;;;;;;;;;;;;;;;;;;;;;;;;;;;;;;;;;;;;;;;;;;;;;73;ICPMS;;;216;ICPMS;;;44;ICPMS;;;446;ICPMS;;;23;ICPMS;;;;;;;;;;;;;;2036;ICPMS;;;53;ICPMS;;;106;ICPMS;;;13.5;57;ICPMS;;;11.9;ICPMS;;;2.77;10.5;1.61;9.9;2.02;5.9;0.88;5.9;0.92;10;1.79;;;;;;;;27;ICPMS;;;;;11.2;ICPMS;;;3.44;;;;;;;;;;;;;;;;;;;;;;;;;;;;;;;;;;;;;;;;;;;;;;;;;;;;;;;;;;;;;;;;;;;;;;;;;;;;;;;;
2015;[19630] VORONTSOV A. A. (2015);samp. BAT4/2;;CENTRAL ASIAN FOLDBELT - PALEOZOIC / SIBERIA_PALEOZOIC / MINUSA (MINUSINSK) TROUGH;BATENEV(O) RISE;54;91;54;91;;;OUTCROP;;;SUBAERIAL;VOLCANIC ROCK;TRACHYDACITE;;;;;DEVONIAN;;;;;WHOLE ROCK;;;;;;;;;;;;;68.52;0.41;;;15.22;;;;;;;;;3.09;;;;1.53;0.5;0.17;;;;;;;4.05;XRF;;;5.06;0.08;;;;;;;;;;;;;;1.32;;;;;;;;;;;;;;;;;;;;;;;;;;;;;;;;;;;;;;;;;;;;;;89;ICPMS;;;375;ICPMS;;;44;ICPMS;;;353;ICPMS;;;21;ICPMS;;;;;;;;;;;;;;1478;ICPMS;;;53;ICPMS;;;114;ICPMS;;;13.4;54;ICPMS;;;9.6;ICPMS;;;2.3;9.7;1.38;8.2;1.62;4.94;0.74;5;0.8;9.5;1.38;;;;;;;;9.8;ICPMS;;;;;10.1;ICPMS;;;2.78;;;;;;;;;;;;;;;;;;;;;;;;;;;;;;;;;;;;;;;;;;;;;;;;;;;;;;;;;;;;;;;;;;;;;;;;;;;;;;;;
2015;[19630] VORONTSOV A. A. (2015);samp. BAT4/5;;CENTRAL ASIAN FOLDBELT - PALEOZOIC / SIBERIA_PALEOZOIC / MINUSA (MINUSINSK) TROUGH;BATENEV(O) RISE;54;91;54;91;;;OUTCROP;;;SUBAERIAL;VOLCANIC ROCK;TRACHYDACITE;;;;;DEVONIAN;;;;;WHOLE ROCK;;;;;;;;;;;;;69.39;0.5;;;14.67;;;;;;;;;3.68;;;;1.16;0.31;0.06;;;;;;;3.8;XRF;;;5.65;0.07;;;;;;;;;;;;;;0.68;;;;;;;;;;;;;;;;;;;;;;;;;;;;;;;;;;;;;;;;;;;;;;92;ICPMS;;;282;ICPMS;;;61;ICPMS;;;486;ICPMS;;;28;ICPMS;;;;;;;;;;;;;;575;ICPMS;;;48;ICPMS;;;99;ICPMS;;;11.3;46;ICPMS;;;8.9;ICPMS;;;1.81;9.8;1.58;10.3;2.28;7.1;1.04;7.2;1.14;13.3;1.89;;;;;;;;17;ICPMS;;;;;14;ICPMS;;;3.94;;;;;;;;;;;;;;;;;;;;;;;;;;;;;;;;;;;;;;;;;;;;;;;;;;;;;;;;;;;;;;;;;;;;;;;;;;;;;;;;
2015;[19630] VORONTSOV A. A. (2015);samp. BAT6/4;;CENTRAL ASIAN FOLDBELT - PALEOZOIC / SIBERIA_PALEOZOIC / MINUSA (MINUSINSK) TROUGH;BATENEV(O) RISE;54;91;54;91;;;OUTCROP;;;SUBAERIAL;VOLCANIC ROCK;TRACHYDACITE;;;;;DEVONIAN;;;;;WHOLE ROCK;;;;;;;;;;;;;69.04;0.67;;;15.16;;;;;;;;;3.63;;;;0.27;0.53;0.13;;;;;;;3.54;XRF;;;5.5;0.11;;;;;;;;;;;;;;1.23;;;;;;;;;;;;;;;;;;;;;;;;;;;;;;;;;;;;;;;;;;;;;;44;ICPMS;;;233;ICPMS;;;41;ICPMS;;;430;ICPMS;;;23;ICPMS;;;;;;;;;;;;;;1424;ICPMS;;;52;ICPMS;;;114;ICPMS;;;13.8;54;ICPMS;;;10.5;ICPMS;;;2.44;9.8;1.5;8.9;1.94;5.5;0.86;5.5;0.92;11.1;1.39;;;;;;;;24;ICPMS;;;;;11.4;ICPMS;;;3.67;;;;;;;;;;;;;;;;;;;;;;;;;;;;;;;;;;;;;;;;;;;;;;;;;;;;;;;;;;;;;;;;;;;;;;;;;;;;;;;;
2015;[19630] VORONTSOV A. A. (2015);samp. BAT4/2;;CENTRAL ASIAN FOLDBELT - PALEOZOIC / SIBERIA_PALEOZOIC / MINUSA (MINUSINSK) TROUGH;BATENEV(O) RISE;54;91;54;91;;;OUTCROP;;;SUBAERIAL;VOLCANIC ROCK;TRACHYDACITE;;;;;DEVONIAN;;;;;MINERAL / COMPONENT (INCL. GROUNDMASS);FELDSPAR;;;;PRIMARY;;;;;;;;;;;;;;;;;;;;;;;;;;;;;;;;;;;;;;;;;;;;;;;;;;;;;;;;;;;;;;;;;;;;;;;;;;;;;;;;;;;;;;;;;;;;;;;;;;;;;;;;;;;;;;;;;;;;;;;;;;;;;;;;;;;;;;;;;;;;;;;;;;;;;;;;;;;;;;;;;;;;;;;;;;;;;;;;;;;;;;;;;;;;;;;;;;;;;;;;;;;;;;;;;;;;;;;;;;;;;13.5;;;;;;;;;;;;;;;;;;;;;;;;;;;;;;;;;;;;;;
2015;[19630] VORONTSOV A. A. (2015);samp. BAT4/5;;CENTRAL ASIAN FOLDBELT - PALEOZOIC / SIBERIA_PALEOZOIC / MINUSA (MINUSINSK) TROUGH;BATENEV(O) RISE;54;91;54;91;;;OUTCROP;;;SUBAERIAL;VOLCANIC ROCK;TRACHYDACITE;;;;;DEVONIAN;;;;;MINERAL / COMPONENT (INCL. GROUNDMASS);FELDSPAR;;;;PRIMARY;;;;;;;;;;;;;;;;;;;;;;;;;;;;;;;;;;;;;;;;;;;;;;;;;;;;;;;;;;;;;;;;;;;;;;;;;;;;;;;;;;;;;;;;;;;;;;;;;;;;;;;;;;;;;;;;;;;;;;;;;;;;;;;;;;;;;;;;;;;;;;;;;;;;;;;;;;;;;;;;;;;;;;;;;;;;;;;;;;;;;;;;;;;;;;;;;;;;;;;;;;;;;;;;;;;;;;;;;;;;;13.2;;;;;;;;;;;;;;;;;;;;;;;;;;;;;;;;;;;;;;
2015;[19667] JONES R. E. (2015);samp. RJ11A15;478647;ANDEAN ARC / SOUTHERN ANDEAN VOLCANIC ZONE / ARGENTINA/CHILE;TERTIARY INTRUSIVES;-30.55139;-69.46786;-30.55139;-69.46786;;;OUTCROP;;;SUBAERIAL;VOLCANIC ROCK;TRACHYDACITE;;;;;;;;;;WHOLE ROCK;;;;;;;;;;;;;;;;;;;;;;;;;;;;;;;;;;;;;;;;;;;;;;;;;;;;;;;;;;;;;;;;;;;;;;;;;;;;;;;;;;;;;;;;;;;;;;;;;;;;;;;;;;;;;;;;;;;;;;;;;;;;;;;;;;;;;;;;;;;;;;;;;;;;;;;;;;;;;;;;;;;;;;;;;;;;;;;;;;;;;;;;;;;;;;;;;;;;;;;;;;;;;0.28268;;-3.5;;;;;;;;;;;;;;;;;;;;;6.36;;;;;;;;;;;;;;;;;;;;;;;;;;;;;9.43;SIMS;;;;;;
2015;[19878] WANG RUI (2015);samp. WR-13-14;;CENTRAL ASIAN FOLDBELT - CENOZOIC/QUATERNARY / CHINA - CENOZOIC/QUATERNARY / TIBET;SUOJIN, GANGDESE BELT;29.6822;89.5844;29.6822;89.5844;4336;4336;OUTCROP;;;SUBAERIAL;VOLCANIC ROCK;TRACHYDACITE;;;;;MIOCENE;;;;;MINERAL / COMPONENT (INCL. GROUNDMASS);ZIRCON;S2794_1@1;;;PRIMARY;;;;;;;;;;;;;;;;;;;;;;;;;;;;;;;;;;;;;;;;;;;;;;;;;;;;;;;;;;;;;;;;;;;;;;;;;;;;;;;;;;;;;;;;;;;;;;;;;;;;;;;;;;;;;;;;;;;;;;;;;;;;;;;;;;;;;;;;;;;;;;;;;;;;;;;;;;;;;;;;;;;;;;;;;;;;;;;;;;;;;;;;;;;;;;;;;;;;;;;;;;;;;;;;;;;;;;;;;;;;;;;6.54;;;;;;;;;;;;;;;;;;;;;;;;;;;;;;;;;;;;
2015;[19878] WANG RUI (2015);samp. WR-13-14;;CENTRAL ASIAN FOLDBELT - CENOZOIC/QUATERNARY / CHINA - CENOZOIC/QUATERNARY / TIBET;SUOJIN, GANGDESE BELT;29.6822;89.5844;29.6822;89.5844;4336;4336;OUTCROP;;;SUBAERIAL;VOLCANIC ROCK;TRACHYDACITE;;;;;MIOCENE;;;;;MINERAL / COMPONENT (INCL. GROUNDMASS);ZIRCON;S2794_10@1;;;PRIMARY;;;;;;;;;;;;;;;;;;;;;;;;;;;;;;;;;;;;;;;;;;;;;;;;;;;;;;;;;;;;;;;;;;;;;;;;;;;;;;;;;;;;;;;;;;;;;;;;;;;;;;;;;;;;;;;;;;;;;;;;;;;;;;;;;;;;;;;;;;;;;;;;;;;;;;;;;;;;;;;;;;;;;;;;;;;;;;;;;;;;;;;;;;;;;;;;;;;;;;;;;;;;;;;;;;;;;;;;;;;;;;;6.67;;;;;;;;;;;;;;;;;;;;;;;;;;;;;;;;;;;;
2015;[19878] WANG RUI (2015);samp. WR-13-14;;CENTRAL ASIAN FOLDBELT - CENOZOIC/QUATERNARY / CHINA - CENOZOIC/QUATERNARY / TIBET;SUOJIN, GANGDESE BELT;29.6822;89.5844;29.6822;89.5844;4336;4336;OUTCROP;;;SUBAERIAL;VOLCANIC ROCK;TRACHYDACITE;;;;;MIOCENE;;;;;MINERAL / COMPONENT (INCL. GROUNDMASS);ZIRCON;S2794_12@1;;;PRIMARY;;;;;;;;;;;;;;;;;;;;;;;;;;;;;;;;;;;;;;;;;;;;;;;;;;;;;;;;;;;;;;;;;;;;;;;;;;;;;;;;;;;;;;;;;;;;;;;;;;;;;;;;;;;;;;;;;;;;;;;;;;;;;;;;;;;;;;;;;;;;;;;;;;;;;;;;;;;;;;;;;;;;;;;;;;;;;;;;;;;;;;;;;;;;;;;;;;;;;;;;;;;;;;;;;;;;;;;;;;;;;;;6.37;;;;;;;;;;;;;;;;;;;;;;;;;;;;;;;;;;;;
2015;[19878] WANG RUI (2015);samp. WR-13-14;;CENTRAL ASIAN FOLDBELT - CENOZOIC/QUATERNARY / CHINA - CENOZOIC/QUATERNARY / TIBET;SUOJIN, GANGDESE BELT;29.6822;89.5844;29.6822;89.5844;4336;4336;OUTCROP;;;SUBAERIAL;VOLCANIC ROCK;TRACHYDACITE;;;;;MIOCENE;;;;;MINERAL / COMPONENT (INCL. GROUNDMASS);ZIRCON;S2794_15@1;;;PRIMARY;;;;;;;;;;;;;;;;;;;;;;;;;;;;;;;;;;;;;;;;;;;;;;;;;;;;;;;;;;;;;;;;;;;;;;;;;;;;;;;;;;;;;;;;;;;;;;;;;;;;;;;;;;;;;;;;;;;;;;;;;;;;;;;;;;;;;;;;;;;;;;;;;;;;;;;;;;;;;;;;;;;;;;;;;;;;;;;;;;;;;;;;;;;;;;;;;;;;;;;;;;;;;;;;;;;;;;;;;;;;;;;6.4;;;;;;;;;;;;;;;;;;;;;;;;;;;;;;;;;;;;
2015;[19878] WANG RUI (2015);samp. WR-13-14;;CENTRAL ASIAN FOLDBELT - CENOZOIC/QUATERNARY / CHINA - CENOZOIC/QUATERNARY / TIBET;SUOJIN, GANGDESE BELT;29.6822;89.5844;29.6822;89.5844;4336;4336;OUTCROP;;;SUBAERIAL;VOLCANIC ROCK;TRACHYDACITE;;;;;MIOCENE;;;;;MINERAL / COMPONENT (INCL. GROUNDMASS);ZIRCON;S2794_16@1;;;PRIMARY;;;;;;;;;;;;;;;;;;;;;;;;;;;;;;;;;;;;;;;;;;;;;;;;;;;;;;;;;;;;;;;;;;;;;;;;;;;;;;;;;;;;;;;;;;;;;;;;;;;;;;;;;;;;;;;;;;;;;;;;;;;;;;;;;;;;;;;;;;;;;;;;;;;;;;;;;;;;;;;;;;;;;;;;;;;;;;;;;;;;;;;;;;;;;;;;;;;;;;;;;;;;;;;;;;;;;;;;;;;;;;;6.56;;;;;;;;;;;;;;;;;;;;;;;;;;;;;;;;;;;;
2015;[19878] WANG RUI (2015);samp. WR-13-14;;CENTRAL ASIAN FOLDBELT - CENOZOIC/QUATERNARY / CHINA - CENOZOIC/QUATERNARY / TIBET;SUOJIN, GANGDESE BELT;29.6822;89.5844;29.6822;89.5844;4336;4336;OUTCROP;;;SUBAERIAL;VOLCANIC ROCK;TRACHYDACITE;;;;;MIOCENE;;;;;MINERAL / COMPONENT (INCL. GROUNDMASS);ZIRCON;S2794_18@1;;;PRIMARY;;;;;;;;;;;;;;;;;;;;;;;;;;;;;;;;;;;;;;;;;;;;;;;;;;;;;;;;;;;;;;;;;;;;;;;;;;;;;;;;;;;;;;;;;;;;;;;;;;;;;;;;;;;;;;;;;;;;;;;;;;;;;;;;;;;;;;;;;;;;;;;;;;;;;;;;;;;;;;;;;;;;;;;;;;;;;;;;;;;;;;;;;;;;;;;;;;;;;;;;;;;;;;;;;;;;;;;;;;;;;;;5.65;;;;;;;;;;;;;;;;;;;;;;;;;;;;;;;;;;;;
2015;[19878] WANG RUI (2015);samp. WR-13-14;;CENTRAL ASIAN FOLDBELT - CENOZOIC/QUATERNARY / CHINA - CENOZOIC/QUATERNARY / TIBET;SUOJIN, GANGDESE BELT;29.6822;89.5844;29.6822;89.5844;4336;4336;OUTCROP;;;SUBAERIAL;VOLCANIC ROCK;TRACHYDACITE;;;;;MIOCENE;;;;;MINERAL / COMPONENT (INCL. GROUNDMASS);ZIRCON;S2794_18@2;;;PRIMARY;;;;;;;;;;;;;;;;;;;;;;;;;;;;;;;;;;;;;;;;;;;;;;;;;;;;;;;;;;;;;;;;;;;;;;;;;;;;;;;;;;;;;;;;;;;;;;;;;;;;;;;;;;;;;;;;;;;;;;;;;;;;;;;;;;;;;;;;;;;;;;;;;;;;;;;;;;;;;;;;;;;;;;;;;;;;;;;;;;;;;;;;;;;;;;;;;;;;;;;;;;;;;;;;;;;;;;;;;;;;;;;5.57;;;;;;;;;;;;;;;;;;;;;;;;;;;;;;;;;;;;
2015;[19878] WANG RUI (2015);samp. WR-13-14;;CENTRAL ASIAN FOLDBELT - CENOZOIC/QUATERNARY / CHINA - CENOZOIC/QUATERNARY / TIBET;SUOJIN, GANGDESE BELT;29.6822;89.5844;29.6822;89.5844;4336;4336;OUTCROP;;;SUBAERIAL;VOLCANIC ROCK;TRACHYDACITE;;;;;MIOCENE;;;;;MINERAL / COMPONENT (INCL. GROUNDMASS);ZIRCON;S2794_19@1;;;PRIMARY;;;;;;;;;;;;;;;;;;;;;;;;;;;;;;;;;;;;;;;;;;;;;;;;;;;;;;;;;;;;;;;;;;;;;;;;;;;;;;;;;;;;;;;;;;;;;;;;;;;;;;;;;;;;;;;;;;;;;;;;;;;;;;;;;;;;;;;;;;;;;;;;;;;;;;;;;;;;;;;;;;;;;;;;;;;;;;;;;;;;;;;;;;;;;;;;;;;;;;;;;;;;;;;;;;;;;;;;;;;;;;;6.58;;;;;;;;;;;;;;;;;;;;;;;;;;;;;;;;;;;;
2015;[19878] WANG RUI (2015);samp. WR-13-14;;CENTRAL ASIAN FOLDBELT - CENOZOIC/QUATERNARY / CHINA - CENOZOIC/QUATERNARY / TIBET;SUOJIN, GANGDESE BELT;29.6822;89.5844;29.6822;89.5844;4336;4336;OUTCROP;;;SUBAERIAL;VOLCANIC ROCK;TRACHYDACITE;;;;;MIOCENE;;;;;MINERAL / COMPONENT (INCL. GROUNDMASS);ZIRCON;S2794_2@1;;;PRIMARY;;;;;;;;;;;;;;;;;;;;;;;;;;;;;;;;;;;;;;;;;;;;;;;;;;;;;;;;;;;;;;;;;;;;;;;;;;;;;;;;;;;;;;;;;;;;;;;;;;;;;;;;;;;;;;;;;;;;;;;;;;;;;;;;;;;;;;;;;;;;;;;;;;;;;;;;;;;;;;;;;;;;;;;;;;;;;;;;;;;;;;;;;;;;;;;;;;;;;;;;;;;;;;;;;;;;;;;;;;;;;;;6.33;;;;;;;;;;;;;;;;;;;;;;;;;;;;;;;;;;;;
2015;[19878] WANG RUI (2015);samp. WR-13-14;;CENTRAL ASIAN FOLDBELT - CENOZOIC/QUATERNARY / CHINA - CENOZOIC/QUATERNARY / TIBET;SUOJIN, GANGDESE BELT;29.6822;89.5844;29.6822;89.5844;4336;4336;OUTCROP;;;SUBAERIAL;VOLCANIC ROCK;TRACHYDACITE;;;;;MIOCENE;;;;;MINERAL / COMPONENT (INCL. GROUNDMASS);ZIRCON;S2794_2@2;;;PRIMARY;;;;;;;;;;;;;;;;;;;;;;;;;;;;;;;;;;;;;;;;;;;;;;;;;;;;;;;;;;;;;;;;;;;;;;;;;;;;;;;;;;;;;;;;;;;;;;;;;;;;;;;;;;;;;;;;;;;;;;;;;;;;;;;;;;;;;;;;;;;;;;;;;;;;;;;;;;;;;;;;;;;;;;;;;;;;;;;;;;;;;;;;;;;;;;;;;;;;;;;;;;;;;;;;;;;;;;;;;;;;;;;6.49;;;;;;;;;;;;;;;;;;;;;;;;;;;;;;;;;;;;
2015;[19878] WANG RUI (2015);samp. WR-13-14;;CENTRAL ASIAN FOLDBELT - CENOZOIC/QUATERNARY / CHINA - CENOZOIC/QUATERNARY / TIBET;SUOJIN, GANGDESE BELT;29.6822;89.5844;29.6822;89.5844;4336;4336;OUTCROP;;;SUBAERIAL;VOLCANIC ROCK;TRACHYDACITE;;;;;MIOCENE;;;;;MINERAL / COMPONENT (INCL. GROUNDMASS);ZIRCON;S2794_3@1;;;PRIMARY;;;;;;;;;;;;;;;;;;;;;;;;;;;;;;;;;;;;;;;;;;;;;;;;;;;;;;;;;;;;;;;;;;;;;;;;;;;;;;;;;;;;;;;;;;;;;;;;;;;;;;;;;;;;;;;;;;;;;;;;;;;;;;;;;;;;;;;;;;;;;;;;;;;;;;;;;;;;;;;;;;;;;;;;;;;;;;;;;;;;;;;;;;;;;;;;;;;;;;;;;;;;;;;;;;;;;;;;;;;;;;;6.64;;;;;;;;;;;;;;;;;;;;;;;;;;;;;;;;;;;;
2015;[19878] WANG RUI (2015);samp. WR-13-14;;CENTRAL ASIAN FOLDBELT - CENOZOIC/QUATERNARY / CHINA - CENOZOIC/QUATERNARY / TIBET;SUOJIN, GANGDESE BELT;29.6822;89.5844;29.6822;89.5844;4336;4336;OUTCROP;;;SUBAERIAL;VOLCANIC ROCK;TRACHYDACITE;;;;;MIOCENE;;;;;MINERAL / COMPONENT (INCL. GROUNDMASS);ZIRCON;S2794_3@2;;;PRIMARY;;;;;;;;;;;;;;;;;;;;;;;;;;;;;;;;;;;;;;;;;;;;;;;;;;;;;;;;;;;;;;;;;;;;;;;;;;;;;;;;;;;;;;;;;;;;;;;;;;;;;;;;;;;;;;;;;;;;;;;;;;;;;;;;;;;;;;;;;;;;;;;;;;;;;;;;;;;;;;;;;;;;;;;;;;;;;;;;;;;;;;;;;;;;;;;;;;;;;;;;;;;;;;;;;;;;;;;;;;;;;;;6.55;;;;;;;;;;;;;;;;;;;;;;;;;;;;;;;;;;;;
2015;[19878] WANG RUI (2015);samp. WR-13-14;;CENTRAL ASIAN FOLDBELT - CENOZOIC/QUATERNARY / CHINA - CENOZOIC/QUATERNARY / TIBET;SUOJIN, GANGDESE BELT;29.6822;89.5844;29.6822;89.5844;4336;4336;OUTCROP;;;SUBAERIAL;VOLCANIC ROCK;TRACHYDACITE;;;;;MIOCENE;;;;;MINERAL / COMPONENT (INCL. GROUNDMASS);ZIRCON;S2794_4@1;;;PRIMARY;;;;;;;;;;;;;;;;;;;;;;;;;;;;;;;;;;;;;;;;;;;;;;;;;;;;;;;;;;;;;;;;;;;;;;;;;;;;;;;;;;;;;;;;;;;;;;;;;;;;;;;;;;;;;;;;;;;;;;;;;;;;;;;;;;;;;;;;;;;;;;;;;;;;;;;;;;;;;;;;;;;;;;;;;;;;;;;;;;;;;;;;;;;;;;;;;;;;;;;;;;;;;;;;;;;;;;;;;;;;;;;6.46;;;;;;;;;;;;;;;;;;;;;;;;;;;;;;;;;;;;
2015;[19878] WANG RUI (2015);samp. WR-13-14;;CENTRAL ASIAN FOLDBELT - CENOZOIC/QUATERNARY / CHINA - CENOZOIC/QUATERNARY / TIBET;SUOJIN, GANGDESE BELT;29.6822;89.5844;29.6822;89.5844;4336;4336;OUTCROP;;;SUBAERIAL;VOLCANIC ROCK;TRACHYDACITE;;;;;MIOCENE;;;;;MINERAL / COMPONENT (INCL. GROUNDMASS);ZIRCON;S2794_7@1;;;PRIMARY;;;;;;;;;;;;;;;;;;;;;;;;;;;;;;;;;;;;;;;;;;;;;;;;;;;;;;;;;;;;;;;;;;;;;;;;;;;;;;;;;;;;;;;;;;;;;;;;;;;;;;;;;;;;;;;;;;;;;;;;;;;;;;;;;;;;;;;;;;;;;;;;;;;;;;;;;;;;;;;;;;;;;;;;;;;;;;;;;;;;;;;;;;;;;;;;;;;;;;;;;;;;;;;;;;;;;;;;;;;;;;;6.35;;;;;;;;;;;;;;;;;;;;;;;;;;;;;;;;;;;;
2015;[19878] WANG RUI (2015);samp. WR-13-14;;CENTRAL ASIAN FOLDBELT - CENOZOIC/QUATERNARY / CHINA - CENOZOIC/QUATERNARY / TIBET;SUOJIN, GANGDESE BELT;29.6822;89.5844;29.6822;89.5844;4336;4336;OUTCROP;;;SUBAERIAL;VOLCANIC ROCK;TRACHYDACITE;;;;;MIOCENE;;;;;MINERAL / COMPONENT (INCL. GROUNDMASS);ZIRCON;S2794_7@2;;;PRIMARY;;;;;;;;;;;;;;;;;;;;;;;;;;;;;;;;;;;;;;;;;;;;;;;;;;;;;;;;;;;;;;;;;;;;;;;;;;;;;;;;;;;;;;;;;;;;;;;;;;;;;;;;;;;;;;;;;;;;;;;;;;;;;;;;;;;;;;;;;;;;;;;;;;;;;;;;;;;;;;;;;;;;;;;;;;;;;;;;;;;;;;;;;;;;;;;;;;;;;;;;;;;;;;;;;;;;;;;;;;;;;;;6.36;;;;;;;;;;;;;;;;;;;;;;;;;;;;;;;;;;;;
2015;[19878] WANG RUI (2015);samp. WR-13-14;;CENTRAL ASIAN FOLDBELT - CENOZOIC/QUATERNARY / CHINA - CENOZOIC/QUATERNARY / TIBET;SUOJIN, GANGDESE BELT;29.6822;89.5844;29.6822;89.5844;4336;4336;OUTCROP;;;SUBAERIAL;VOLCANIC ROCK;TRACHYDACITE;;;;;MIOCENE;;;;;MINERAL / COMPONENT (INCL. GROUNDMASS);ZIRCON;S2794_9@1;;;PRIMARY;;;;;;;;;;;;;;;;;;;;;;;;;;;;;;;;;;;;;;;;;;;;;;;;;;;;;;;;;;;;;;;;;;;;;;;;;;;;;;;;;;;;;;;;;;;;;;;;;;;;;;;;;;;;;;;;;;;;;;;;;;;;;;;;;;;;;;;;;;;;;;;;;;;;;;;;;;;;;;;;;;;;;;;;;;;;;;;;;;;;;;;;;;;;;;;;;;;;;;;;;;;;;;;;;;;;;;;;;;;;;;;6.03;;;;;;;;;;;;;;;;;;;;;;;;;;;;;;;;;;;;
2015;[19878] WANG RUI (2015);samp. WR-13-83;;CENTRAL ASIAN FOLDBELT - CENOZOIC/QUATERNARY / CHINA - CENOZOIC/QUATERNARY / TIBET;JIADACUO, GANGDESE BELT;29.8361;85.7667;29.8361;85.7667;5180;5180;OUTCROP;;;SUBAERIAL;VOLCANIC ROCK;TRACHYDACITE;;;;;MIOCENE;;;;;MINERAL / COMPONENT (INCL. GROUNDMASS);ZIRCON;S2792_12@2;;;PRIMARY;;;;;;;;;;;;;;;;;;;;;;;;;;;;;;;;;;;;;;;;;;;;;;;;;;;;;;;;;;;;;;;;;;;;;;;;;;;;;;;;;;;;;;;;;;;;;;;;;;;;;;;;;;;;;;;;;;;;;;;;;;;;;;;;;;;;;;;;;;;;;;;;;;;;;;;;;;;;;;;;;;;;;;;;;;;;;;;372.706191955362;SIMS;;;629.125278824324;;;;;;;;;;;;;;;;;;;;;;;;;;;;;;;;;0.00137359071430371;;;;0.00279439553983197;;;;;;;;;;;;;;;;;;;;;;;;;;;;;;;;;;;;16.8702798691912;PB206_U238 AGE;17.1993592426542;PB206_U238 AGE;16.9898148594747;PB206_U238 AGE;15.705415966581;
2015;[19878] WANG RUI (2015);samp. WR-13-83;;CENTRAL ASIAN FOLDBELT - CENOZOIC/QUATERNARY / CHINA - CENOZOIC/QUATERNARY / TIBET;JIADACUO, GANGDESE BELT;29.8361;85.7667;29.8361;85.7667;5180;5180;OUTCROP;;;SUBAERIAL;VOLCANIC ROCK;TRACHYDACITE;;;;;MIOCENE;;;;;MINERAL / COMPONENT (INCL. GROUNDMASS);ZIRCON;S2792_5@1;;;PRIMARY;;;;;;;;;;;;;;;;;;;;;;;;;;;;;;;;;;;;;;;;;;;;;;;;;;;;;;;;;;;;;;;;;;;;;;;;;;;;;;;;;;;;;;;;;;;;;;;;;;;;;;;;;;;;;;;;;;;;;;;;;;;;;;;;;;;;;;;;;;;;;;;;;;;;;;;;;;;;;;;;;;;;;;;;;;;;;;;464.624933100838;SIMS;;;660.275483981109;;;;;;;;;;;;;;;;;;;;;;;;;;;;;;;;;0.00118808302945989;;;;0.00280687046113715;;;;;;;;;;;;;;;;;;;;;;;;;;;;;;;;;;;;17.167709050716;PB206_U238 AGE;17.3179534549651;PB206_U238 AGE;17.3335550558048;PB206_U238 AGE;15.8318671709049;