Year;CITATION;SAMPLE NAME;UNIQUE_ID;LOCATION;LOCATION COMMENT;LATITUDE (MIN.);LONGITUDE (MIN.);LATITUDE (MAX.);LONGITUDE (MAX.);ELEVATION (MIN.);ELEVATION (MAX.);SAMPLING TECHNIQUE;DRILLING DEPTH (MIN.);DRILLING DEPTH (MAX.);LAND/SEA (SAMPLING);ROCK TYPE;ROCK NAME;ROCK TEXTURE;SAMPLE COMMENT;AGE (MIN.);AGE (MAX.);GEOLOGICAL AGE;GEOLOGICAL AGE PREFIX;ERUPTION YEAR;ALTERATION;ALTERATION TYPE;TYPE OF MATERIAL;MINERAL / COMPONENT;SPOT (MINERAL);CRYSTAL;RIM / CORE (MINERAL GRAINS);PRIMARY/SECONDARY;INCLUSION TYPE;SPOT (INCLUSION);MINERAL (INCLUSION);RIM / CORE (INCLUSION);HOSTMINERAL (INCLUSION);HEATING;HEATING TEMPERATURE (?C);SIO2(WT%);TIO2(WT%);ZRO2(WT%);B2O3(WT%);AL2O3(WT%);CR2O3(WT%);LA2O3(WT%);CE2O3(WT%);Y2O3(WT%);V2O3(WT%);NB2O3(WT%);TA2O5(WT%);WO3(WT%);FE2O3T(WT%);FE2O3(WT%);FEOT(WT%);FEO(WT%);CAO(WT%);MGO(WT%);MNO(WT%);BAO(WT%);SRO(WT%);NIO(WT%);ZNO(WT%);CS2O(WT%);RB2O(WT%);K2O(WT%);;;;NA2O(WT%);P2O5(WT%);H2O(WT%);;;;H2OP(WT%);H2OM(WT%);CO2(WT%);C(WT%);F(WT%);CL(WT%);SO2(WT%);SO3(WT%);S(WT%);LOI(WT%);AL(WT%);TI(WT%);FE(WT%);MG(WT%);CA(WT%);K(WT%);NA(WT%);LI(PPM);BE(PPM);B(PPM);C(PPM);F(PPM);NA(PPM);MG(PPM);AL(PPM);P(PPM);S(PPM);CL(PPM);AR40(AT/G);AR40(CCMSTP/G);AR40(MOL/G);AR40(PPB);K(PPM);CA(PPM);SC(PPM);;;;TI(PPM);;;;V(PPM);CR(PPM);MN(PPM);FE(PPM);CO(PPM);NI(PPM);CU(PPM);ZN(PPM);GA(PPM);GE(PPM);AS(PPM);SE(PPM);BR(PPM);RB(PPM): altern. values or methods;;;;SR(PPM): altern. values or methods;;;;Y(PPM): altern. values or methods;;;;ZR(PPM): altern. values or methods;;;;NB(PPM): altern. values or methods;;;;MO(PPM): altern. values or methods;;;;AG(PPM);CD(PPM);IN(PPM);SN(PPM);SB(PPM);TE(PPM);CS(PPM);BA(PPM): altern. values or methods;;;;LA(PPM): altern. values or methods;;;;CE(PPM): altern. values or methods;;;;PR(PPM);ND(PPM): altern. values or methods;;;;SM(PPM): altern. values or methods;;;;EU(PPM);GD(PPM);TB(PPM);DY(PPM);HO(PPM);ER(PPM);TM(PPM);YB(PPM);LU(PPM);HF(PPM);TA(PPM);W(PPM);RE(PPM);AU(PPM);AU(PPB);HG(PPM);HG(PPB);TL(PPM);PB(PPM): altern. values or methods;;;;PB206(PPM);BI(PPM);TH(PPM): altern. values or methods;;;;U(PPM);ND143_ND144;ND143_ND144_INI;EPSILON_ND;EPSILON_ND_INI;SM147_ND144;SR87_SR86;SR87_SR86_INI;EPSILON_SR;EPSILON_SR_INI;RB87_SR86;PB206_PB204;PB206_PB204_INI;PB206_PB207;PB206_PB208;PB207_PB204;PB207_PB204_INI;PB207_PB206;PB208_PB204;PB208_PB204_INI;PB208_PB206;HF176_HF177;HF176_HF177_INI;EPSILON_HF_INI;LU176_HF177;YB176_HF177;AR36_AR39;AR36_AR40;AR37_AR39;AR38_AR39;AR39_AR40;AR40_AR36;AR40_AR39;PB206_U238;PB207_U235;PB208_TH232;TH232_PB204;TH232_U238;U235_PB204;U238_PB204;U238_PB206;D7LI(VS LSVEC);D18O(PER MIL);D18O(VS SMOW);D18O(VS VSMOW);D56FE(VS IRMM-014);D57FE(VS IRMM-014);DD(VS SMOW);ALBITE(MOL%);ANORTHITE(MOL%);CA OLIVINE(MOL%);ENSTATITE(MOL%);FAYALITE(MOL%);FORSTERITE(MOL%);FERROSILITE(MOL%);ORTHOCLASE(MOL%);TEPHROITE(MOL%);ULVOSPINEL(MOL%);WOLLASTONITE(MOL%);AGE(KA): altern. values or methods;;;;AGE(MA): altern. values or methods;;;;;;;;AGE_PB207_PB206(MA);AGE_PB207_U235(MA);AGE_PB206_U238(MA): altern. values or methods;;;;;;AGE_PB208_TH232(MA);
1998;[10699] KESKIN M. (1998);samp. MK106;199774;ANATOLIA-IRAN BELT / TURKEY / EASTERN ANATOLIAN VOLCANIC BELT / BLACK IGNIMBRITE FORMATION;PASINLER AREA, ERZURUM-KARS PLATEAU;39.9822;41.6831;39.9822;41.6831;;;OUTCROP;;;SUBAERIAL;VOLCANIC ROCK;TRACHYDACITE;;;;;NEOGENE;;;;;WHOLE ROCK;;;;;;;;;;;;;67.5;0.59;;;16.31;;;;;;;;;2.87;;;;1.9;0.7;0.08;;;;;;;4.3;XRF;;;5.01;0.12;;;;;;;;;;;;;;2.47;;;;;;;;;;;;;;;;;;;;;;;;;3;XRF;;;;;;;23;2;;;3;2;;53;17;;;;;111;XRF;;;175;XRF;;;33;XRF;;;463;XRF;;;24;XRF;;;;;;;;;;;;;;856;XRF;;;45;XRF;;;81;XRF;;;;31;XRF;;;;;;;;;;;;;;;;;;;;;;;;;20;XRF;;;;;18;XRF;;;;;;;;;;;;;;;;;;;;;;;;;;;;;;;;;;;;;;;;;;;;;;;;;;;;;;;;;;;;;;;;;;;;;;;;;;;;;;;;;;;
1998;[10699] KESKIN M. (1998);samp. MK318;199778;ANATOLIA-IRAN BELT / TURKEY / EASTERN ANATOLIAN VOLCANIC BELT / BLACK IGNIMBRITE FORMATION;PASINLER AREA, ERZURUM-KARS PLATEAU;39.9822;41.6831;39.9822;41.6831;;;OUTCROP;;;SUBAERIAL;VOLCANIC ROCK;TRACHYDACITE;;;;;NEOGENE;;;;;WHOLE ROCK;;;;;;;;;;;;;65.1;0.83;;;16.15;;;;;;;;;3.9;;;;2.67;1.13;0.09;;;;;;;4.02;XRF;;;4.94;0.21;;;;;;;;;;;;;;1.61;;;;;;;;;;;;;;;;;;;;;;;;;5;XRF;;;;;;;43;;;;4;;19;65;18;;;;;100;XRF;;;244;XRF;;;37;XRF;;;513;XRF;;;23;XRF;;;;;;;;;;;;;;770;XRF;;;49;XRF;;;85;XRF;;;;34;XRF;;;;;;;;;;;;;;;;;;;;;;;;;25;XRF;;;;;18;XRF;;;;;;;;;;;;;;;;;;;;;;;;;;;;;;;;;;;;;;;;;;;;;;;;;;;;;;;;;;;;;;;;;;;;;;;;;;;;;;;;;;;
1998;[10699] KESKIN M. (1998);samp. MK321;;ANATOLIA-IRAN BELT / TURKEY / EASTERN ANATOLIAN VOLCANIC BELT / BLACK IGNIMBRITE FORMATION;PASINLER AREA, ERZURUM-KARS PLATEAU;39.9822;41.6831;39.9822;41.6831;;;OUTCROP;;;SUBAERIAL;VOLCANIC ROCK;TRACHYDACITE;;;;;NEOGENE;;;;;WHOLE ROCK;;;;;;;;;;;;;68.8;0.5;;;15.97;;;;;;;;;2.35;;;;1.46;0.44;0.08;;;;;;;4.85;XRF;;;4.83;0.11;;;;;;;;;;;;;;3.17;;;;;;;;;;;;;;;;;;;;;;;;;4;XRF;;;;;;;5;2;;;2;3;;50;18;;;;;115;XRF;;;139;XRF;;;35;XRF;;;464;XRF;;;26;XRF;;;;;;;;;;;;;;767;XRF;;;49;XRF;;;88;XRF;;;;28;XRF;;;;;;;;;;;;;;;;;;;;;;;;;22;XRF;;;;;22;XRF;;;;;;;;;;;;;;;;;;;;;;;;;;;;;;;;;;;;;;;;;;;;;;;;;;;;;;;;;;;;;;;;;;;;;;;;;;;;;;;;;;;
1998;[10699] KESKIN M. (1998);samp. MK358;;ANATOLIA-IRAN BELT / TURKEY / EASTERN ANATOLIAN VOLCANIC BELT / BLACK IGNIMBRITE FORMATION;PASINLER AREA, ERZURUM-KARS PLATEAU;39.9822;41.6831;39.9822;41.6831;;;OUTCROP;;;SUBAERIAL;VOLCANIC ROCK;TRACHYDACITE;;;;;NEOGENE;;;;;WHOLE ROCK;;;;;;;;;;;;;64.9;0.87;;;16.51;;;;;;;;;4.06;;;;2.64;1.1;0.1;;;;;;;4.01;XRF;;;4.67;0.2;;;;;;;;;;;;;;2.87;;;;;;;;;;;;;;;;;;;;;;;;;8;XRF;;;;;;;40;1;;;3;3;3;57;18;;;;;99;XRF;;;241;XRF;;;36;XRF;;;506;XRF;;;24;XRF;;;;;;;;;;;;;;786;XRF;;;49;XRF;;;84;XRF;;;;32;XRF;;;;;;;;;;;;;;;;;;;;;;;;;19;XRF;;;;;19;XRF;;;;;;;;;;;;;;;;;;;;;;;;;;;;;;;;;;;;;;;;;;;;;;;;;;;;;;;;;;;;;;;;;;;;;;;;;;;;;;;;;;;
1998;[10699] KESKIN M. (1998);samp. MK362;;ANATOLIA-IRAN BELT / TURKEY / EASTERN ANATOLIAN VOLCANIC BELT / BLACK IGNIMBRITE FORMATION;PASINLER AREA, ERZURUM-KARS PLATEAU;39.9822;41.6831;39.9822;41.6831;;;OUTCROP;;;SUBAERIAL;VOLCANIC ROCK;TRACHYDACITE;;;;;NEOGENE;;;;;WHOLE ROCK;;;;;;;;;;;;;68.5;0.4;;;15.59;;;;;;;;;1.98;;;;1.7;0.2;0.06;;;;;;;4.55;XRF;;;5.42;0.08;;;;;;;;;;;;;;0.81;;;;;;;;;;;;;;;;;;;;;;;;;4;XRF;;;;;;;4;6;;;1;7;6;43;19;;;;;126;XRF;;;120;XRF;;;34;XRF;;;429;XRF;;;26;XRF;;;;;;;;;;;;;;723;XRF;;;53;XRF;;;82;XRF;;;;28;XRF;;;;;;;;;;;;;;;;;;;;;;;;;24;XRF;;;;;23;XRF;;;;;;;;;;;;;;;;;;;;;;;;;;;;;;;;;;;;;;;;;;;;;;;;;;;;;;;;;;;;;;;;;;;;;;;;;;;;;;;;;;;
1998;[10699] KESKIN M. (1998);samp. MK169;;ANATOLIA-IRAN BELT / TURKEY / EASTERN ANATOLIAN VOLCANIC BELT / ALADAG / CUKURAYVA IGNIMBRITE;NORTH OF KAGIZMAN, ERZURUM-KARS PLATEAU;40.1581;43.1353;40.1581;43.1353;;;OUTCROP;;;SUBAERIAL;VOLCANIC ROCK;TRACHYDACITE;;;;;NEOGENE;;;;;WHOLE ROCK;;;;;;;;;;;;;66.8;0.8;;;16.89;;;;;;;;;;2.84;;;2.98;0.2;0.02;;;;;;;3.36;XRF;3.32;NOT;5.16;0.26;;;;;;;;;;;;;;0.98;;;;;;;;;;;;;;;;;;;;0.000553;;;;;9;XRF;;;;;;;18;1;;;3;1;2;79;20;;;;;92;XRF;;;286;XRF;;;42;XRF;;;323;XRF;;;23;XRF;;;;;;;;;;;;;;673;XRF;;;38;XRF;;;75;XRF;;;;36;XRF;;;;;;;;;;;;;;;;;;;;;;;;;17;XRF;;;;;10;XRF;;;;;;;;;;;;;;;;;;;;;;;;;;;;;;;;;;;;;;;;;;;;;;;;;;;;;;;;;;;;;;;;;;5.15;K-AR;;;;;;;;;;;;;;;;
1998;[10699] KESKIN M. (1998);samp. MK170;;ANATOLIA-IRAN BELT / TURKEY / EASTERN ANATOLIAN VOLCANIC BELT / ALADAG / CUKURAYVA IGNIMBRITE;NORTH OF KAGIZMAN, ERZURUM-KARS PLATEAU;40.1581;43.1353;40.1581;43.1353;;;OUTCROP;;;SUBAERIAL;VOLCANIC ROCK;TRACHYDACITE;;;;;NEOGENE;;;;;WHOLE ROCK;;;;;;;;;;;;;66;0.8;;;16.92;;;;;;;;;;3.46;;;2.93;0.32;0.04;;;;;;;3.35;XRF;;;5.09;0.26;;;;;;;;;;;;;;0.99;;;;;;;;;;;;;;;;;;;;;;;;;11;XRF;;;;;;;24;89;;;1;2;;64;17;;;;;93;XRF;;;279;XRF;;;39;XRF;;;310;XRF;;;22;XRF;;;;;;;;;;;;;;723;XRF;;;40;XRF;;;81;XRF;;;;40;XRF;;;;;;;;;;;;;;;;;;;;;;;;;17;XRF;;;;;13;XRF;;;;;;;;;;;;;;;;;;;;;;;;;;;;;;;;;;;;;;;;;;;;;;;;;;;;;;;;;;;;;;;;;;;;;;;;;;;;;;;;;;;
1998;[10699] KESKIN M. (1998);samp. MK163;;ANATOLIA-IRAN BELT / TURKEY / EASTERN ANATOLIAN VOLCANIC BELT / ALADAG / PASLI FORMATION;NORTH OF KAGIZMAN, ERZURUM-KARS PLATEAU;40.1581;43.1353;40.1581;43.1353;;;OUTCROP;;;SUBAERIAL;VOLCANIC ROCK;TRACHYDACITE;;;;;NEOGENE;;;;;WHOLE ROCK;;;;;;;;;;;;;67.5;0.54;;;16.24;;;;;;;;;;3.36;;;2.66;0.66;0.08;;;;;;;3.66;XRF;;;4.33;0.24;;;;;;;;;;;;;;2.57;;;;;;;;;;;;;;;;;;;;;;;;;7;XRF;;;;;;;20;2;;;5;7;;68;19;;;;;94;XRF;;;233;XRF;;;37;XRF;;;315;XRF;;;21;XRF;;;;;;;;;;;;;;704;XRF;;;27;XRF;;;62;XRF;;;;26;XRF;;;;;;;;;;;;;;;;;;;;;;;;;15;XRF;;;;;10;XRF;;;;;;;;;;;;;;;;;;;;;;;;;;;;;;;;;;;;;;;;;;;;;;;;;;;;;;;;;;;;;;;;;;;;;;;;;;;;;;;;;;;
1998;[10699] KESKIN M. (1998);samp. MK174;199865;ANATOLIA-IRAN BELT / TURKEY / EASTERN ANATOLIAN VOLCANIC BELT / ALADAG / PASLI FORMATION;NORTH OF KAGIZMAN, ERZURUM-KARS PLATEAU;40.1581;43.1353;40.1581;43.1353;;;OUTCROP;;;SUBAERIAL;VOLCANIC ROCK;TRACHYDACITE;;;;;NEOGENE;;;;;WHOLE ROCK;;;;;;;;;;;;;66.5;0.54;;;15.83;;;;;;;;;;3.96;;;3.18;0.81;0.1;;;;;;;3.16;XRF;;;4.7;0.23;;;;;;;;;;;;;;1.1;;;;;;;;;;;;;;;;;;;;;;;;;7;XRF;;;;;;;20;1;;;2;5;3;67;19;;;;;77;XRF;;;236;XRF;;;37;XRF;;;316;XRF;;;20;XRF;;;;;;;;;;;;;;606;XRF;;;27;XRF;28.4;ICPMS;65;XRF;53.3;ICPMS;6.5;25;XRF;24.1;ICPMS;5.08;ICPMS;;;1.61;5.3;0.83;4.98;1.02;3.08;0.54;2.87;0.42;3.6;1.4;;;;;;;;17;XRF;15.7;ICPMS;;;13;XRF;10.57;ICPMS;3.09;;;;;;;;;;;;;;;;;;;;;;;;;;;;;;;;;;;;;;;;;;;;;;;;;;;;;;;;;;;;;;;;;;;;;;;;;;;;;;;;
2006;[10703] ALDANMAZ E. (2006);samp. EA326;;ANATOLIA-IRAN BELT / TURKEY / WESTERN ANATOLIAN VOLCANIC BELT;MOUNT SEYRET, FLANK;38.9692;26.8589;38.9692;26.8589;;;OUTCROP;;;SUBAERIAL;VOLCANIC ROCK;TRACHYDACITE;PORPHYRITIC;LAVA;15000000;22000000;MIOCENE;;;;;MINERAL / COMPONENT (INCL. GROUNDMASS);AMPHIBOLE;;;CORE;PRIMARY;;;;;;;;45.72;1.46;;;7.61;;;;;;;;;;;13.39;;11.53;13.97;0.39;;;;;;;0.77;EMP (EPMA);;;1.46;;;;;;;;;;;;;;;;;;;;;;;;;;;;;;;;;;;;;;;;;;;;;;;;;;;;;;;;;;;;;;;;;;;;;;;;;;;;;;;;;;;;;;;;;;;;;;;;;;;;;;;;;;;;;;;;;;;;;;;;;;;;;;;;;;;;;;;;;;;;;;;;;;;;;;;;;;;;;;;;;;;;;;;;;;;;;;;;;;;;;;;;;;;;;;;;;;;;;;;;;;;;;;;;;;;;;;;;;;;;;
2006;[10703] ALDANMAZ E. (2006);samp. EA326;;ANATOLIA-IRAN BELT / TURKEY / WESTERN ANATOLIAN VOLCANIC BELT;MOUNT SEYRET, FLANK;38.9692;26.8589;38.9692;26.8589;;;OUTCROP;;;SUBAERIAL;VOLCANIC ROCK;TRACHYDACITE;PORPHYRITIC;LAVA;15000000;22000000;MIOCENE;;;;;MINERAL / COMPONENT (INCL. GROUNDMASS);AMPHIBOLE;;;RIM;PRIMARY;;;;;;;;44.99;1.66;;;8.04;;;;;;;;;;;13.99;;11.52;13.44;0.39;;;;;;;0.82;EMP (EPMA);;;1.51;;;;;;;;;;;;;;;;;;;;;;;;;;;;;;;;;;;;;;;;;;;;;;;;;;;;;;;;;;;;;;;;;;;;;;;;;;;;;;;;;;;;;;;;;;;;;;;;;;;;;;;;;;;;;;;;;;;;;;;;;;;;;;;;;;;;;;;;;;;;;;;;;;;;;;;;;;;;;;;;;;;;;;;;;;;;;;;;;;;;;;;;;;;;;;;;;;;;;;;;;;;;;;;;;;;;;;;;;;;;;
1998;[10707] KARACIK Z. (1998);samp. 263;;ANATOLIA-IRAN BELT / TURKEY / WESTERN ANATOLIAN VOLCANIC BELT / AYVACIK VOLCANICS;AYVACIK, SOUTH BIGA PENINSULA;39.6011;26.4047;39.6011;26.4047;;;OUTCROP;;;SUBAERIAL;VOLCANIC ROCK;TRACHYDACITE;;;15900000;21500000;MIOCENE;;;;;WHOLE ROCK;;;;;;;;;;;;;62.77;0.65;;;16.23;;;;;;;;;5.13;;;;4.18;1.82;0.08;;;;;;;5.18;ICPMS;;;3.57;0.37;;;;;;;;;;;;;;0.94;;;;;;;;;;;;;;;;;;;;;;;;;;;;;3897;ICPMS;;;119;85;;;14;17;;;18;;;;;188;ICPMS;;;1082;ICPMS;;;29;ICPMS;;;294;ICPMS;;;18.7;ICPMS;;;;;;;;;;;;;;1688;ICPMS;;;;;;;;;;;;;;;;;;;;;;;;;;;;;;;;;;;;;;;;;;;;;;;;;;;;;;;;;;;;;;;;;;;;;;;;;;;;;;;;;;;;;;;;;;;;;;;;;;;;;;;;;;;;;;;;;;;;;;;;;;;;;;;;
2007;[10906] ROWE M. C. (2007);samp. MR00-8;;BASIN AND RANGE - GREAT BASIN / JEMEZ LINEAMENT (RATON HOTSPOT) / NEW MEXICO / JEMEZ MOUNTAINS VOLCANIC FIELD / TSCHICOMA FORMATION;;36.1169;-106.4084;36.1169;-106.4084;;;OUTCROP;;;SUBAERIAL;VOLCANIC ROCK;TRACHYDACITE;;;2000000;8000000;NEOGENE;;;;;WHOLE ROCK;;;;;;;;;;;;;66.94;0.59;;;15.36;;;;;;;;;;;3.44;;3.95;2.08;0.07;;;;;;;3.38;XRF;;;3.92;0.29;;;;;;;;;;;;;;;;;;;;;;;;;;;;;;;;;;;;;;;7;XRF;8.3;ICPMS;;;;;66;37;;;;34;14;50;;;;;;53;XRF;52.4;ICPMS;601;XRF;608;ICPMS;14;XRF;15.9;ICPMS;161;XRF;161;ICPMS;19.9;XRF;19.6;ICPMS;;;;;;;;;;;1.6;1292;XRF;1305;ICPMS;36;XRF;41.4;ICPMS;73;XRF;68.8;ICPMS;6.97;25.29;ICPMS;;;4.79;ICPMS;;;1.34;3.77;0.54;3.04;0.59;1.49;0.22;1.37;0.22;4.4;1.4;;;;;;;;16;XRF;17.5;ICPMS;;;8;ICPMS;;;2.2;0.51251;;;;;;0.70452;;;;17.454;;;;15.471;;;37.323;;;;;;;;;;;;;;;;;;;;;;;;;;;;;;;;;;;;;;;;;;;;;;;;;;;;;;;;;;;;;;
2007;[10906] ROWE M. C. (2007);samp. MR00-12;;BASIN AND RANGE - GREAT BASIN / JEMEZ LINEAMENT (RATON HOTSPOT) / NEW MEXICO / JEMEZ MOUNTAINS VOLCANIC FIELD / TSCHICOMA FORMATION;;36.0324;-106.4721;36.0324;-106.4721;;;OUTCROP;;;SUBAERIAL;VOLCANIC ROCK;TRACHYDACITE;;;2000000;8000000;NEOGENE;;;;;WHOLE ROCK;;;;;;;;;;;;;63.45;0.8;;;16.3;;;;;;;;;;;4.74;;4.69;2.41;0.09;;;;;;;3.04;XRF;;;4.05;0.43;;;;;;;;;;;;;;;;;;;;;;;;;;;;;;;;;;;;;;;4;XRF;10.5;ICPMS;;;;;78;18;;;;16;11;64;;;;;;55;XRF;57.1;ICPMS;796;XRF;727;ICPMS;22;XRF;22.4;ICPMS;194;XRF;196;ICPMS;28.5;XRF;28.8;ICPMS;;;;;;;;;;;1.9;1216;XRF;1249;ICPMS;62;XRF;61.3;ICPMS;85;XRF;93;ICPMS;10.14;36.81;ICPMS;;;6.74;ICPMS;;;1.78;5.31;0.78;4.3;0.82;2.07;0.3;1.89;0.3;5;2;;;;;;;;17;XRF;17.4;ICPMS;;;11.9;ICPMS;;;3.2;0.51257;;;;;;0.70442;;;;17.644;;;;15.474;;;37.461;;;;;;;;;;;;;;;;;;;;;;;;;;;;;;;;;;;;;;;;;;;;;;;;;;;;;;;;;;;;;;
2007;[10906] ROWE M. C. (2007);samp. MR00-111;;BASIN AND RANGE - GREAT BASIN / JEMEZ LINEAMENT (RATON HOTSPOT) / NEW MEXICO / JEMEZ MOUNTAINS VOLCANIC FIELD / LA GRULLA PLATEAU FORMATION;;36.0692;-106.5408;36.0692;-106.5408;;;OUTCROP;;;SUBAERIAL;VOLCANIC ROCK;TRACHYDACITE;;;7000000;8000000;MIOCENE;;;;;WHOLE ROCK;;;;;;;;;;;;;69.26;0.55;;;16.25;;;;;;;;;;;2.76;;1.63;0.63;0.06;;;;;;;4.05;XRF;;;4.7;0.1;;;;;;;;;;;;;;;;;;;;;;;;;;;;;;;;;;;;;;;9;XRF;8.2;ICPMS;;;;;44;7;;;;23;13;48;;;;;;83;XRF;80.7;ICPMS;223;XRF;208;ICPMS;25;XRF;26.5;ICPMS;373;XRF;370;ICPMS;23.7;XRF;24;ICPMS;;;;;;;;;;;2.6;3997;XRF;3915;ICPMS;140;XRF;136.7;ICPMS;143;XRF;167.9;ICPMS;18.76;62.45;ICPMS;;;9.41;ICPMS;;;2.23;6.94;0.98;5.37;1.02;2.64;0.39;2.54;0.39;9;1.5;;;;;;;;24;XRF;24.1;ICPMS;;;17;ICPMS;;;3.3;0.51235;;;;;;0.70626;;;;18.142;;;;15.53;;;37.796;;;;;;;;;;;;;;;;;;;;;;;;;;;;;;;;;;;;;;;;;;;;;;;;;;;;;;;;;;;;;;
2007;[10906] ROWE M. C. (2007);samp. JM93124;;BASIN AND RANGE - GREAT BASIN / JEMEZ LINEAMENT (RATON HOTSPOT) / NEW MEXICO / JEMEZ MOUNTAINS VOLCANIC FIELD / PALIZA CANYON FORMATION;;35.7472;-106.3878;35.7472;-106.3878;;;OUTCROP;;;SUBAERIAL;VOLCANIC ROCK;TRACHYDACITE;;;7000000;13000000;MIOCENE;;;;;WHOLE ROCK;;;;;;;;;;;;;68.83;0.61;;;16.1;;;;;;;;;;;2.42;;1.37;0.41;0.07;;;;;;;4.86;XRF;;;5.19;0.14;;;;;;;;;;;;;;;;;;;;;;;;;;;;;;;;;;;;;;;6;ICPMS;;;;;;;;;;;;4;8;40;;;;;;107;XRF;107.5;ICPMS;264;XRF;261;ICPMS;35;XRF;32.9;ICPMS;477;XRF;404;ICPMS;53;XRF;54.4;ICPMS;;;;;;;;;;;2.6;1345;ICPMS;;;72.3;ICPMS;;;113.4;ICPMS;;;11.83;41.51;ICPMS;;;8.01;ICPMS;;;1.66;6.5;1.01;6.41;1.24;3.32;0.5;3.28;0.5;10.3;3.6;;;;;;;;28;XRF;27.4;ICPMS;;;21.2;ICPMS;;;6.6;0.51263;;;;;;0.70463;;;;17.987;;;;;;;36.957;;;;;;;;;;;;;;;;;;;;;;;;;;;;;;;;;;;;;;;;;;;;;;;;;;;;;;;;;;;;;;
2007;[10906] ROWE M. C. (2007);samp. JM93214;;BASIN AND RANGE - GREAT BASIN / JEMEZ LINEAMENT (RATON HOTSPOT) / NEW MEXICO / JEMEZ MOUNTAINS VOLCANIC FIELD / PALIZA CANYON FORMATION;;35.7911;-106.3567;35.7911;-106.3567;;;OUTCROP;;;SUBAERIAL;VOLCANIC ROCK;TRACHYDACITE;;;7000000;13000000;MIOCENE;;;;;WHOLE ROCK;;;;;;;;;;;;;70.09;0.64;;;14.99;;;;;;;;;;;2.52;;1.58;0.49;0.05;;;;;;;4.58;XRF;;;4.89;0.17;;;;;;;;;;;;;;;;;;;;;;;;;;;;;;;;;;;;;;;6.6;ICPMS;;;;;;;;;;;;4;2;35;;;;;;103;XRF;104.8;ICPMS;277;XRF;279;ICPMS;34;XRF;33.5;ICPMS;405;XRF;400;ICPMS;49;XRF;54.2;ICPMS;;;;;;;;;;;2.8;1178;ICPMS;;;66.4;ICPMS;;;109.4;ICPMS;;;11.41;40.79;ICPMS;;;7.63;ICPMS;;;1.69;6.25;1;5.99;1.17;3.19;0.49;3.12;0.5;9.6;3.3;;;;;;;;19;XRF;18.3;ICPMS;;;18.7;ICPMS;;;6.4;0.51254;;;;;;0.70488;;;;18.175;;;;;;;37.754;;;;;;;;;;;;;;;;;;;;;;;;;;;;;;;;;;;;;;;;;;;;;;;;;;;;;;;;;;;;;;
1998;[11170] CORTESOGNO L. (1998);samp. B8;;ALPS_SARDINIA_CORSICA / SOUTHERN ALPS / TIONE BASIN - VAL RENDENA;;46;11;46;11;;;OUTCROP;;;SUBAERIAL;VOLCANIC ROCK;TRACHYDACITE;;CLASTS IN THE VOLCANO-SEDIMENTARY UNIT;;;PERMIAN;;;;;WHOLE ROCK;;;;;;;;;;;;;65.8;0.54;;;16.44;;;;;;;;;4.62;;;;1.49;0.94;0.14;;;;;;;4.37;XRF;;;2.87;0.2;;;;;;;;;;;;;;2.58;;;;;;;;;;;;;;;;;60;;;;;;;;17;XRF;;;;;;;;19;;;15;6;2;28;20;;;;;223;XRF;;;53;XRF;;;33;XRF;;;194;XRF;;;10;XRF;;;;;;;;;;;;;;367;XRF;;;;;;;;;;;;;;;;;;;;;;;;;;;;;;;;;;;;;;11;XRF;;;;;;;;;;;;;;;;;;;;;;;;;;;;;;;;;;;;;;;;;;;;;;;;;;;;;;;;;;;;;;;;;;;;;;;;;;;;;;;;;;;;;;;;;
1998;[11170] CORTESOGNO L. (1998);samp. CD1;;ALPS_SARDINIA_CORSICA / SOUTHERN ALPS / TIONE BASIN - VAL RENDENA;;46;11;46;11;;;OUTCROP;;;SUBAERIAL;VOLCANIC ROCK;TRACHYDACITE;;CLASTS IN THE VOLCANO-SEDIMENTARY UNIT;;;PERMIAN;;;;;WHOLE ROCK;;;;;;;;;;;;;65.83;0.58;;;16.03;;;;;;;;;4.69;;;;0.29;2.8;0.07;;;;;;;3.78;XRF;;;3.78;0.17;;;;;;;;;;;;;;1.99;;;;;;;;;;;;;;;;;21;;;;;;;;18;XRF;;;;;;;;23;;;19;6;0;81;18;;;;;186;XRF;;;60;XRF;;;34;XRF;;;200;XRF;;;13;XRF;;;;;;;;;;;;;;336;XRF;;;;;;;;;;;;;;;;;;;;;;;;;;;;;;;;;;;;;;4;XRF;;;;;;;;;;;;;;;;;;;;;;;;;;;;;;;;;;;;;;;;;;;;;;;;;;;;;;;;;;;;;;;;;;;;;;;;;;;;;;;;;;;;;;;;;
2008;[11185] MCCURRY M. (2008);samp. 49;;YELLOWSTONE-SNAKE RIVER PLAIN VOLCANIC PROVINCE / SNAKE RIVER PLAIN;CEDAR BUTTE, NORTHERN NEVADA;43.3992;-112.9183;43.3992;-112.9183;;;OUTCROP;;;SUBAERIAL;VOLCANIC ROCK;TRACHYDACITE;;;16700000;16700000;MIOCENE;MIDDLE;;;;WHOLE ROCK;;;;;;;;;;;;;62.8;0.81;;;13.5;;;;;;;;;;;9.7;;3.37;0.42;0.29;;;;;;;4.92;ICPAES;;;4.04;0.17;;;;;;;;;;;;;;0.72;;;;;;;;;;;;;;;;;;;;;;;;;25;INAA;;;;;;;;;;;;;;;;;;;;115;ICPAES;;;93;ICPAES;;;140;ICPAES;;;2369;ICPAES;;;;;;;;;;;;;;;;;;2672;ICPAES;;;172;INAA;;;322;INAA;;;;164;INAA;;;29;INAA;;;9.1;;5.5;;;;;18;2.1;44;13;;;;;;;;;;;;;;16;INAA;;;3.9;;;;;;;;;;;;;;;;;;;;;;;;;;;;;;;;;;;;;;;;;;;;;;;;;;;;;;;;;;;;;;;;;;;;;;;;;;;;;;;;
2008;[11185] MCCURRY M. (2008);samp. D13RB;;YELLOWSTONE-SNAKE RIVER PLAIN VOLCANIC PROVINCE / SNAKE RIVER PLAIN;CEDAR BUTTE, NORTHERN NEVADA;43.3933;-112.9739;43.3933;-112.9739;;;OUTCROP;;;SUBAERIAL;VOLCANIC ROCK;TRACHYDACITE;;;16700000;16700000;MIOCENE;MIDDLE;;;;WHOLE ROCK;;;;;;;;;;;;;63.3;1.06;;;13.3;;;;;;;;;;;9.6;;3.3;0.85;0.25;;;;;;;4.22;ICPAES;;;3.61;0.46;;;;;;;;;;;;;;1.14;;;;;;;;;;;;;;;;;;;;;;;;;;;;;;;;;;;;;;;;;;;;;;141;ICPAES;;;161;ICPAES;;;163;ICPAES;;;2123;ICPAES;;;;;;;;;;;;;;;;;;1920;ICPAES;;;;;;;;;;;;;;;;;;;;;;;;;;;;;;;;;;;;;;;;;;;;;;;;;;;;;;;;;;;;;;;;;;;;;;;;;;;;;;;;;;;;;;;;;;;;;;;;;;;;;;;;;;;;;;;;;;;;;;;;;;;;;;;;
2008;[11185] MCCURRY M. (2008);samp. 4;;YELLOWSTONE-SNAKE RIVER PLAIN VOLCANIC PROVINCE / SNAKE RIVER PLAIN;CEDAR BUTTE, NORTHERN NEVADA;43.3975;-112.9122;43.3975;-112.9122;;;OUTCROP;;;SUBAERIAL;VOLCANIC ROCK;TRACHYDACITE;;;16700000;16700000;MIOCENE;MIDDLE;;;;WHOLE ROCK;;;;;;;;;;;;;63.8;0.65;;;13.5;;;;;;;;;;;8.9;;3.24;0.32;0.28;;;;;;;5;ICPAES;;;4.15;0.14;;;;;;;;;;;;;;0.58;;;;;;;;;;;;;;;;;;;;;;;;;;;;;;;;;;;;;;;;;;;;;;124;ICPAES;;;64;ICPAES;;;151;ICPAES;;;2060;ICPAES;;;;;;;;;;;;;;;;;;2124;ICPAES;;;;;;;;;;;;;;;;;;;;;;;;;;;;;;;;;;;;;;;;;;;;;;;;;;;;;;;;;;;;;;;;;;;;;;;;;;;;;;;;;;;;;;;;;;;;;;;;;;;;;;;;;;;;;;;;;;;;;;;;;;;;;;;;
2008;[11185] MCCURRY M. (2008);samp. 59;;YELLOWSTONE-SNAKE RIVER PLAIN VOLCANIC PROVINCE / SNAKE RIVER PLAIN;CEDAR BUTTE, NORTHERN NEVADA;43.4;-112.9175;43.4;-112.9175;;;OUTCROP;;;SUBAERIAL;VOLCANIC ROCK;TRACHYDACITE;;;16700000;16700000;MIOCENE;MIDDLE;;;;WHOLE ROCK;;;;;;;;;;;;;64.4;0.47;;;13.1;;;;;;;;;;;9.3;;3.25;0.4;0.28;;;;;;;4.75;ICPAES;;;3.91;0.17;;;;;;;;;;;;;;0.72;;;;;;;;;;;;;;;;;;;;;;;;;;;;;;;;;;;;;;;;;;;;;;164;ICPAES;;;21;ICPAES;;;195;ICPAES;;;1671;ICPAES;;;;;;;;;;;;;;;;;;1568;ICPAES;;;;;;;;;;;;;;;;;;;;;;;;;;;;;;;;;;;;;;;;;;;;;;;;;;;;;;;;;;;;;;;;;;;;;;;;;;;;;;;;;;;;;;;;;;;;;;;;;;;;;;;;;;;;;;;;;;;;;;;;;;;;;;;;
2008;[11185] MCCURRY M. (2008);samp. 36;;YELLOWSTONE-SNAKE RIVER PLAIN VOLCANIC PROVINCE / SNAKE RIVER PLAIN;CEDAR BUTTE, NORTHERN NEVADA;43.4017;-112.9169;43.4017;-112.9169;;;OUTCROP;;;SUBAERIAL;VOLCANIC ROCK;TRACHYDACITE;;;16700000;16700000;MIOCENE;MIDDLE;;;;WHOLE ROCK;;;;;;;;;;;;;65.7;0.62;;;13.5;;;;;;;;;;;7.9;;2.74;0.34;0.22;;;;;;;5.05;ICPAES;;;3.86;0.13;;;;;;;;;;;;;;1.52;;;;;;;;;;;;;;;;;;;;;;;;;15;INAA;;;;;;;;;;;;;;;;;;;;191;ICPAES;;;87;ICPAES;;;203;ICPAES;;;2206;ICPAES;;;;;;;;;;;;;;;;;;1890;ICPAES;;;204;INAA;;;383;INAA;;;;90;INAA;;;33;INAA;;;6.9;;6.4;;;;;21;2.3;38;16;;;;;;;;;;;;;;22;INAA;;;5;;;;;;;;;;;;;;;;;;;;;;;;;;;;;;;;;;;;;;;;;;;;;;;;;;;;;;;;;;;;;;;;;;;;;;;;;;;;;;;;