Year;CITATION;SAMPLE NAME;UNIQUE_ID;LOCATION;LOCATION COMMENT;LATITUDE (MIN.);LONGITUDE (MIN.);LATITUDE (MAX.);LONGITUDE (MAX.);ELEVATION (MIN.);ELEVATION (MAX.);SAMPLING TECHNIQUE;DRILLING DEPTH (MIN.);DRILLING DEPTH (MAX.);LAND/SEA (SAMPLING);ROCK TYPE;ROCK NAME;ROCK TEXTURE;SAMPLE COMMENT;AGE (MIN.);AGE (MAX.);GEOLOGICAL AGE;GEOLOGICAL AGE PREFIX;ERUPTION YEAR;ALTERATION;ALTERATION TYPE;TYPE OF MATERIAL;MINERAL / COMPONENT;SPOT (MINERAL);CRYSTAL;RIM / CORE (MINERAL GRAINS);PRIMARY/SECONDARY;INCLUSION TYPE;SPOT (INCLUSION);MINERAL (INCLUSION);RIM / CORE (INCLUSION);HOSTMINERAL (INCLUSION);HEATING;HEATING TEMPERATURE (?C);SIO2(WT%);TIO2(WT%);ZRO2(WT%);B2O3(WT%);AL2O3(WT%);CR2O3(WT%);LA2O3(WT%);CE2O3(WT%);Y2O3(WT%);V2O3(WT%);NB2O3(WT%);TA2O5(WT%);WO3(WT%);FE2O3T(WT%);FE2O3(WT%);FEOT(WT%);FEO(WT%);CAO(WT%);MGO(WT%);MNO(WT%);BAO(WT%);SRO(WT%);NIO(WT%);ZNO(WT%);CS2O(WT%);RB2O(WT%);K2O(WT%);;;;NA2O(WT%);P2O5(WT%);H2O(WT%);;;;H2OP(WT%);H2OM(WT%);CO2(WT%);C(WT%);F(WT%);CL(WT%);SO2(WT%);SO3(WT%);S(WT%);LOI(WT%);AL(WT%);TI(WT%);FE(WT%);MG(WT%);CA(WT%);K(WT%);NA(WT%);LI(PPM);BE(PPM);B(PPM);C(PPM);F(PPM);NA(PPM);MG(PPM);AL(PPM);P(PPM);S(PPM);CL(PPM);AR40(AT/G);AR40(CCMSTP/G);AR40(MOL/G);AR40(PPB);K(PPM);CA(PPM);SC(PPM);;;;TI(PPM);;;;V(PPM);CR(PPM);MN(PPM);FE(PPM);CO(PPM);NI(PPM);CU(PPM);ZN(PPM);GA(PPM);GE(PPM);AS(PPM);SE(PPM);BR(PPM);RB(PPM): altern. values or methods;;;;SR(PPM): altern. values or methods;;;;Y(PPM): altern. values or methods;;;;ZR(PPM): altern. values or methods;;;;NB(PPM): altern. values or methods;;;;MO(PPM): altern. values or methods;;;;AG(PPM);CD(PPM);IN(PPM);SN(PPM);SB(PPM);TE(PPM);CS(PPM);BA(PPM): altern. values or methods;;;;LA(PPM): altern. values or methods;;;;CE(PPM): altern. values or methods;;;;PR(PPM);ND(PPM): altern. values or methods;;;;SM(PPM): altern. values or methods;;;;EU(PPM);GD(PPM);TB(PPM);DY(PPM);HO(PPM);ER(PPM);TM(PPM);YB(PPM);LU(PPM);HF(PPM);TA(PPM);W(PPM);RE(PPM);AU(PPM);AU(PPB);HG(PPM);HG(PPB);TL(PPM);PB(PPM): altern. values or methods;;;;PB206(PPM);BI(PPM);TH(PPM): altern. values or methods;;;;U(PPM);ND143_ND144;ND143_ND144_INI;EPSILON_ND;EPSILON_ND_INI;SM147_ND144;SR87_SR86;SR87_SR86_INI;EPSILON_SR;EPSILON_SR_INI;RB87_SR86;PB206_PB204;PB206_PB204_INI;PB206_PB207;PB206_PB208;PB207_PB204;PB207_PB204_INI;PB207_PB206;PB208_PB204;PB208_PB204_INI;PB208_PB206;HF176_HF177;HF176_HF177_INI;EPSILON_HF_INI;LU176_HF177;YB176_HF177;AR36_AR39;AR36_AR40;AR37_AR39;AR38_AR39;AR39_AR40;AR40_AR36;AR40_AR39;PB206_U238;PB207_U235;PB208_TH232;TH232_PB204;TH232_U238;U235_PB204;U238_PB204;U238_PB206;D7LI(VS LSVEC);D18O(PER MIL);D18O(VS SMOW);D18O(VS VSMOW);D56FE(VS IRMM-014);D57FE(VS IRMM-014);DD(VS SMOW);ALBITE(MOL%);ANORTHITE(MOL%);CA OLIVINE(MOL%);ENSTATITE(MOL%);FAYALITE(MOL%);FORSTERITE(MOL%);FERROSILITE(MOL%);ORTHOCLASE(MOL%);TEPHROITE(MOL%);ULVOSPINEL(MOL%);WOLLASTONITE(MOL%);AGE(KA): altern. values or methods;;;;AGE(MA): altern. values or methods;;;;;;;;AGE_PB207_PB206(MA);AGE_PB207_U235(MA);AGE_PB206_U238(MA): altern. values or methods;;;;;;AGE_PB208_TH232(MA);
2001;[7752] ROMER R. L. (2001);samp. HA10/11;;EUROPEAN OROGENIC BELT - PALEOZOIC / GERMANY / SAALE BASIN / HALLE VOLCANIC COMPLEX;;51.6;11.9;51.7;12.1;;;OUTCROP;;;SUBAERIAL;VOLCANIC ROCK;TRACHYDACITE;PORPHYRITIC;;325000000;340000000;CARBONIFEROUS;;;;;WHOLE ROCK;;;;;;;;;;;;;66.7;0.47;;;14.3;;;;;;;;;3.24;;;;1.32;1.85;0.05;;;;;;;4.74;XRF;;;3.63;0.11;;;;;2.02;;0.89;;0.081;;;;;;;;;;;;;52;2.6;;;;;;;;;;;;;;;;8.1;ICPAES;;;;;;;32;14;;;;0;;48;;;;;;171;XRF;;;78;XRF;;;31.8;ICPMS;;;241;XRF;;;20;XRF;;;;;;;;;;5;;;1.8;732;XRF;;;53.6;ICPMS;;;106;ICPMS;;;12.4;42.6;ICPMS;;;7.67;ICPMS;;;0.96;6.54;0.98;5.8;1.14;3.31;0.49;3.27;0.5;7.1;;;;;;;;;11.4;ICPMS;;;;;19.6;ICPMS;;;5.3;0.512088;;;;;0.733643;;;;;;;;;;;;;;;;;;;;;;;;;;;;;;;;;;;;;;;;;;;;;;;;;;;;;;;;;;;;;;;;;;;;;;;;;;
1998;[8314] BARRAT J.-A.(1998)  [GeoReM [1040] ];samp. CH57;148668;EAST AFRICAN RIFT / ETHIOPIAN RIFT / AFAR DEPRESSION / ALE BAGU (DALLAFILLA);;13.52;40.63;13.52;40.63;;;OUTCROP;;;SUBAERIAL;VOLCANIC ROCK;TRACHYDACITE;;;;;HOLOCENE;;;;;WHOLE ROCK;;;;;;;;;;;;;62.98;1.22;;;13.63;;;;;;;;;8.81;;;;3.68;1.08;0.17;;;;;;;3.02;XRF;;;4.34;0.33;;;;;;;;;;;;;;0.14;;;;;;;;;;;;;;;;;;;;;;;;;;;;;;;;;27;0;;;15;5;47;129;25;;;;;84;XRF;;;227;XRF;;;80;XRF;;;713;XRF;;;106;XRF;;;;;;;;;;;;;;606;XRF;;;;;;;;;;;;;;;;;;;;;;;;;;;;;;;;;;;;;;;;;;;;;;;;;;;;;;0.70366;;;;;;;;;;;;;;;;;;;;;;;;;;;;;;;;;;;;;5.19;;;;;;;;;;;;;;;;;;;;;;;;;;;;;;;;;;;;;
1998;[8314] BARRAT J.-A.(1998)  [GeoReM [1040] ];samp. D98;148669;EAST AFRICAN RIFT / ETHIOPIAN RIFT / AFAR DEPRESSION / ALE BAGU (DALLAFILLA);;13.52;40.63;13.52;40.63;;;OUTCROP;;;SUBAERIAL;VOLCANIC ROCK;TRACHYDACITE;;;;;HOLOCENE;;;;;WHOLE ROCK;;;;;;;;;;;;;63.06;1.21;;;13.6;;;;;;;;;8.77;;;;3.71;1.08;0.17;;;;;;;3.01;XRF;;;4.33;0.34;;;;;;;;;;;;;;0.14;;;;;;;;;;;;;;;;;;;;;;;;;;;;;;;;;27;3;;;14;6;48;126;26;;;;;85;XRF;;;231;XRF;;;80;XRF;;;718;XRF;;;105;XRF;;;;;;;;;;;;;;617;XRF;;;;;;;;;;;;;;;;;;;;;;;;;;;;;;;;;;;;;;;;;;;;;;;;;;;;;;0.70377;;;;;;;;;;;;;;;;;;;;;;;;;;;;;;;;;;;;;5.35;;;;;;;;;;;;;;;;;;;;;;;;;;;;;;;;;;;;;
1998;[8314] BARRAT J.-A.(1998)  [GeoReM [1040] ];samp. D87;148670;EAST AFRICAN RIFT / ETHIOPIAN RIFT / AFAR DEPRESSION / ALE BAGU (DALLAFILLA);;13.52;40.63;13.52;40.63;;;OUTCROP;;;SUBAERIAL;VOLCANIC ROCK;TRACHYDACITE;;;;;HOLOCENE;;;;;WHOLE ROCK;;;;;;;;;;;;;65.63;0.85;;;14.14;;;;;;;;;6.96;;;;2.87;0.81;0.18;;;;;;;3.01;XRF;;;4.91;0.2;;;;;;;;;;;;;;-0.06;;;;;;;;;;;;;;;;;;;;;;;;;;;;;;;;;18;2;;;8;5;9;129;26;;;;;80;XRF;;;229;XRF;;;76;XRF;;;712;XRF;;;107;XRF;;;;;;;;;;;;;;612;XRF;;;;;;;;;;;;;;;;;;;;;;;;;;;;;;;;;;;;;;;;;;;;;;;;;;;;;;;;;;;;;;;;;;;;;;;;;;;;;;;;;;;;;;;;;;;5.68;;;;;;;;;;;;;;;;;;;;;;;;;;;;;;;;;;;;;
1998;[8314] BARRAT J.-A.(1998)  [GeoReM [1040] ];samp. F47;;EAST AFRICAN RIFT / ETHIOPIAN RIFT / AFAR DEPRESSION / ALU DALAFFILA;;13.8;40.5;13.8;40.5;;;OUTCROP;;;SUBAERIAL;VOLCANIC ROCK;TRACHYDACITE;;;;;HOLOCENE;;;;;WHOLE ROCK;;;;;;;;;;;;;68.37;0.77;;;13.54;;;;;;;;;5.16;;;;2.37;0.74;0.15;;;;;;;2.36;XRF;;;5.49;0.15;;;;;;;;;;;;;;0.37;;;;;;;;;;;;;;;;;;;;;;;;;;;;;;;;;18;5;;;6;5;0;103;24;;;;;60;XRF;;;146;XRF;;;85;XRF;;;668;XRF;;;101;XRF;;;;;;;;;;;;;;476;XRF;;;;;;;;;;;;;;;;;;;;;;;;;;;;;;;;;;;;;;;;;;;;;;;;;;;;;;;;;;;;;;;;;;;;;;;;;;;;;;;;;;;;;;;;;;;6.46;;;;;;;;;;;;;;;;;;;;;;;;;;;;;;;;;;;;;
1998;[8314] BARRAT J.-A.(1998)  [GeoReM [1040] ];samp. D83;148672;EAST AFRICAN RIFT / ETHIOPIAN RIFT / AFAR DEPRESSION / ALE BAGU (DALLAFILLA);;13.52;40.63;13.52;40.63;;;OUTCROP;;;SUBAERIAL;VOLCANIC ROCK;TRACHYDACITE;;;;;HOLOCENE;;;;;WHOLE ROCK;;;;;;;;;;;;;66.41;0.73;;;14.11;;;;;;;;;6.56;;;;2.57;0.58;0.17;;;;;;;3.13;XRF;;;5.01;0.16;;;;;;;;;;;;;;0.33;;;;;;;;;;;;;;;;;;;;;;;;;;;;;;;;;5;1;;;5;4;6;130;26;;;;;82;XRF;;;218;XRF;;;78;XRF;;;739;XRF;;;110;XRF;;;;;;;;;;;;;;634;XRF;;;;;;;;;;;;;;;;;;;;;;;;;;;;;;;;;;;;;;;;;;;;;;;;;;;;;;;;;;;;;;;;;;;;;;;;;;;;;;;;;;;;;;;;;;;5.61;;;;;;;;;;;;;;;;;;;;;;;;;;;;;;;;;;;;;
1998;[8314] BARRAT J.-A.(1998)  [GeoReM [1040] ];samp. D146;;EAST AFRICAN RIFT / ETHIOPIAN RIFT / AFAR DEPRESSION / BORALE ALE;;13.725;40.6;13.725;40.6;;;OUTCROP;;;SUBAERIAL;VOLCANIC ROCK;TRACHYDACITE;;;;;HOLOCENE;;;;;WHOLE ROCK;;;;;;;;;;;;;67.61;0.68;;;13.74;;;;;;;;;5.84;;;;2.05;0.52;0.16;;;;;;;2.47;XRF;;;5.9;0.13;;;;;;;;;;;;;;0.3;;;;;;;;;;;;;;;;;;;;;;;;;;;;;;;;;4;1;;;8;5;0;110;25;;;;;59;XRF;;;150;XRF;;;77;XRF;;;706;XRF;;;100;XRF;;;;;;;;;;;;;;526;XRF;;;;;;;;;;;;;;;;;;;;;;;;;;;;;;;;;;;;;;;;;;;;;;;;;;;;;;0.70383;;;;;;;;;;;;;;;;;;;;;;;;;;;;;;;;;;;;;6.37;;;;;;;;;;;;;;;;;;;;;;;;;;;;;;;;;;;;;
1998;[8314] BARRAT J.-A.(1998)  [GeoReM [1040] ];samp. CH57;148668;EAST AFRICAN RIFT / ETHIOPIAN RIFT / AFAR DEPRESSION / ALE BAGU (DALLAFILLA);;13.52;40.63;13.52;40.63;;;OUTCROP;;;SUBAERIAL;VOLCANIC ROCK;TRACHYDACITE;;;;;HOLOCENE;;;;;MINERAL / COMPONENT (INCL. GROUNDMASS);PLAGIOCLASE;;;;PRIMARY;;;;;;;;;;;;;;;;;;;;;;;;;;;;;;;;;;;;;;;;;;;;;;;;;;;;;;;;;;;;;;;;;;;;;;;;;;;;;;;;;;;;;;;;;;;;;;;;;;;;;;;;;;;;;;;;;;;;;;;;;;;;;;;;;;;;;;;;;;;;;;;;;;;;;;;;;;;;;;;;;;;;;;;;;;;;;;;;;;;;;;;;;;;;;;;;;;;;;;;;;;;;;;;;;;;;;;;;;;;;;;5.05;;;;;;;;;;;;;;;;;;;;;;;;;;;;;;;;;;;;;
2000;[8477] ALDANMAZ E. (2000);samp. EA359;;ANATOLIA-IRAN BELT / TURKEY / WESTERN ANATOLIAN VOLCANIC BELT / SEYTANSOFRASI UNIT;DIKILI;39.0731;26.8922;39.0731;26.8922;;;OUTCROP;;;SUBAERIAL;VOLCANIC ROCK;TRACHYDACITE;;;;;MIOCENE;LOWER;;;;WHOLE ROCK;;;;;;;;;;;;;66.04;0.52;;;16.42;;;;;;;;;3.3;;;;3.84;1.86;0.08;;;;;;;4.38;XRF;;;3.05;0.26;;;;;;;;;;;;;;2.28;;;;;;;;;;;;;;;;;;;;;;;;;5.1;ICPMS;;;;;;;82.7;43.3;;;8.6;14.7;2.4;55.1;13.7;;;;;125.5;ICPMS;;;458.5;ICPMS;;;42.3;ICPMS;;;69.9;ICPMS;;;14;ICPMS;;;;;;;;;;;;;6.8;1195.9;ICPMS;;;45.21;ICPMS;;;77.37;ICPMS;;;9.44;39.61;ICPMS;;;7.22;ICPMS;;;1.75;6.48;1.06;6.1;1.25;3.25;0.55;3.08;0.49;2.18;1.27;;;;;;;;30.3;ICPMS;;;;;22.28;ICPMS;;;5.1;;;;;;;;;;;;;;;;;;;;;;;;;;;;;;;;;;;;;;;;;;;;;;;;;;;;;;;;;;;;;;;;;;;;;;;;;;;;;;;;
2000;[8477] ALDANMAZ E. (2000);samp. EA326;;ANATOLIA-IRAN BELT / TURKEY / WESTERN ANATOLIAN VOLCANIC BELT / SEYTANSOFRASI UNIT;DIKILI;39.0731;26.8922;39.0731;26.8922;;;OUTCROP;;;SUBAERIAL;VOLCANIC ROCK;TRACHYDACITE;;;;;MIOCENE;LOWER;;;;WHOLE ROCK;;;;;;;;;;;;;65.46;0.53;;;14.16;;;;;;;;;3.89;;;;3.98;2.47;0.06;;;;;;;3.79;XRF;;;3.12;0.22;;;;;;;;;;;;;;1.51;;;;;;;;;;;;;;;;;;;;;;;;;9.8;ICPMS;;;;;;;89.3;34.2;;;11.2;16.3;16.9;46.9;17.9;;;;;138.7;ICPMS;;;537.4;ICPMS;;;22.4;ICPMS;;;66;ICPMS;;;11.3;ICPMS;;;;;;;;;;;;;6.3;1308.5;ICPMS;;;50.29;ICPMS;;;90.32;ICPMS;;;9.69;36.05;ICPMS;;;5.83;ICPMS;;;1.33;4.26;0.67;3.75;0.72;1.88;0.34;1.93;0.31;2.24;1.04;;;;;;;;38.2;ICPMS;;;;;25.59;ICPMS;;;5.26;;;;;;;;;;;;;;;;;;;;;;;;;;;;;;;;;;;;;;;;;;;;;;;;;;;;;;;;;;;;;;;;;;;;;;;;;;;;;;;;
2000;[8477] ALDANMAZ E. (2000);samp. EA215;;ANATOLIA-IRAN BELT / TURKEY / WESTERN ANATOLIAN VOLCANIC BELT / BERGAMA IGNIMBRITE;ASSOS, SOUTH BIGA PENINSULA;39.6;26.4;39.6;26.4;;;OUTCROP;;;SUBAERIAL;VOLCANIC ROCK;TRACHYDACITE;;;;;MIOCENE;LOWER;;;;WHOLE ROCK;;;;;;;;;;;;;70.46;0.51;;;15.77;;;;;;;;;0.78;;;;2.1;0.52;0.01;;;;;;;4.55;XRF;;;3.66;0.22;;;;;;;;;;;;;;0.84;;;;;;;;;;;;;;;;;;;;;;;;;3.8;ICPMS;;;;;;;44.4;0;;;1.8;11.5;7.1;22.6;18;;;;;164.3;ICPMS;;;790;ICPMS;;;18.7;ICPMS;;;221.7;ICPMS;;;15.6;ICPMS;;;;;;;;;;;;;6.6;2616.3;ICPMS;;;71.12;ICPMS;;;127.72;ICPMS;;;13.47;49.88;ICPMS;;;7.9;ICPMS;;;2.16;5.27;0.71;3.48;0.61;1.48;0.24;1.37;0.21;5.55;1.32;;;;;;;;50.1;ICPMS;;;;;44.73;ICPMS;;;6.81;;;;;;;;;;;;;;;;;;;;;;;;;;;;;;;;;;;;;;;;;;;;;;;;;;;;;;;;;;;;;;;;;;;;;;;;;;;;;;;;
2000;[8477] ALDANMAZ E. (2000);samp. EA6;;ANATOLIA-IRAN BELT / TURKEY / WESTERN ANATOLIAN VOLCANIC BELT / KIZILTEPE UNIT;EZINE, SOUTH BIGA PENINSULA;39.79;26.3325;39.79;26.3325;;;OUTCROP;;;SUBAERIAL;VOLCANIC ROCK;TRACHYDACITE;;;;;MIOCENE;LOWER;;;;WHOLE ROCK;;;;;;;;;;;;;62.13;0.57;;;15.69;;;;;;;;;4.44;;;;3.72;2.51;0.09;;;;;;;5.45;XRF;;;3.73;0.33;;;;;;;;;;;;;;2.19;;;;;;;;;;;;;;;;;;;;;;;;;12.1;ICPMS;;;;;;;95;55.2;;;15;21.5;28.1;59.7;19.3;;;;;209.7;ICPMS;;;644.7;ICPMS;;;27.1;ICPMS;;;134.4;ICPMS;;;16.6;ICPMS;;;;;;;;;;;;;3.3;1336.3;ICPMS;;;84.92;ICPMS;;;159.31;ICPMS;;;17.7;66.74;ICPMS;;;10.67;ICPMS;;;2.25;7.24;1;4.83;0.84;2.07;0.34;1.94;0.3;4.27;1.43;;;;;;;;46.6;ICPMS;;;;;54.66;ICPMS;;;11.11;;;;;;;;;;;;;;;;;;;;;;;;;;;;;;;;;;;;;;;;;;;;;;;;;;;;;;;;;;;;;;;;;;;;;;;;;;;;;;;;
2000;[8477] ALDANMAZ E. (2000);samp. EA11;;ANATOLIA-IRAN BELT / TURKEY / WESTERN ANATOLIAN VOLCANIC BELT / KIZILTEPE UNIT;EZINE, SOUTH BIGA PENINSULA;39.79;26.3325;39.79;26.3325;;;OUTCROP;;;SUBAERIAL;VOLCANIC ROCK;TRACHYDACITE;;;;;MIOCENE;LOWER;;;;WHOLE ROCK;;;;;;;;;;;;;62.68;0.44;;;16.25;;;;;;;;;3.81;;;;4.27;2.41;0.1;;;;;;;4.72;XRF;;;3.95;0.23;;;;;;;;;;;;;;2.08;;;;;;;;;;;;;;;;;;;;;;;;;9.1;ICPMS;;;;;;;80.2;9.9;;;6.5;8.6;15;47.9;17.8;;;;;177.4;ICPMS;;;819.3;ICPMS;;;37.7;ICPMS;;;223.7;ICPMS;;;16.9;ICPMS;;;;;;;;;;;;;3.5;1236.6;ICPMS;;;87.24;ICPMS;;;152.98;ICPMS;;;16.24;60.28;ICPMS;;;9.77;ICPMS;;;2.21;6.72;0.98;4.83;0.88;2.28;0.4;2.33;0.36;3.56;1.23;;;;;;;;65.5;ICPMS;;;;;64.07;ICPMS;;;11.22;;;;;;;;;;;;;;;;;;;;;;;;;;;;;;;;;;;;;;;;;;;;;;;;;;;;;;;;;;;;;;;;;;;;;;;;;;;;;;;;
2005;[8700] SKUF^IN P. K.(2005)  [GeoReM [1018] ];samp. 89-B134;;BALTIC SHIELD / KOLA-LAPLAND PROVINCE / PECHENGA-PASVIK GREENSTONE BELT / NORTHERN PECHENGA GROUP;;69.3;29.8;69.6;31.1;;;OUTCROP;;;SUBAERIAL;VOLCANIC ROCK;TRACHYDACITE;;HYPABYSSAL;1860000000;1860000000;PROTEROZOIC;PALEO;;;;WHOLE ROCK;;;;;;;;;;;;;;;;;;;;;;;;;;;;;;;;;;;;;;;;;;;;;;;;;;;;;;;;;;;;;;;;;;;;;;;;;;;;;;;;;;;;;;;;;;;;;;;;;;;;;;;;;;;;;;;;;;;;;;;;;;;;;;;;;;;;;;;;;;;;;;;;;;;;29.09;TIMS_ID;;;6.08;TIMS_ID;;;;;;;;;;;;;;;;;;;;;;;;;;;;;;;;0.51165;;;;0.126281;;;;;;;;;;;;;;;;;;;;;;;;;;;;;;;;;;;;;;;;;;;;;;;;;;;;;;;;;;;;;;;;;;;;;;;;;;;
2005;[8700] SKUF^IN P. K.(2005)  [GeoReM [1018] ];samp. 89-B145/8;;BALTIC SHIELD / KOLA-LAPLAND PROVINCE / PECHENGA-PASVIK GREENSTONE BELT / NORTHERN PECHENGA GROUP;;69.3;29.8;69.6;31.1;;;OUTCROP;;;SUBAERIAL;VOLCANIC ROCK;TRACHYDACITE;;HYPABYSSAL;1860000000;1860000000;PROTEROZOIC;PALEO;;;;WHOLE ROCK;;;;;;;;;;;;;;;;;;;;;;;;;;;;;;;;;;;;;;;;;;;;;;;;;;;;;;;;;;;;;;;;;;;;;;;;;;;;;;;;;;;;;;;;;;;;;;;;;;;;;;;;;;;;;;;;;;;;;;;;;;;;;;;;;;;;;;;;;;;;;;;;;;;;11.32;TIMS_ID;;;1.83;TIMS_ID;;;;;;;;;;;;;;;;;;;;;;;;;;;;;;;;0.511161;;;;0.097842;;;;;;;;;;;;;;;;;;;;;;;;;;;;;;;;;;;;;;;;;;;;;;;;;;;;;;;;;;;;;;;;;;;;;;;;;;;
2005;[8700] SKUF^IN P. K.(2005)  [GeoReM [1018] ];samp. S-141840389-74;;BALTIC SHIELD / KOLA-LAPLAND PROVINCE / PECHENGA-PASVIK GREENSTONE BELT / NORTHERN PECHENGA GROUP;;69.3;29.8;69.6;31.1;;;OUTCROP;;;SUBAERIAL;VOLCANIC ROCK;TRACHYDACITE;;HYPABYSSAL;1860000000;1860000000;PROTEROZOIC;PALEO;;;;WHOLE ROCK;;;;;;;;;;;;;;;;;;;;;;;;;;;;;;;;;;;;;;;;;;;;;;;;;;;;;;;;;;;;;;;;;;;;;;;;;;;;;;;;;;;;;;;;;;;;;;;;;;;;;;;;;;;;;;;;;;;;;;;;;;;;;;;;;;;;;;;;;;;;;;;;;;;;13.55;TIMS_ID;;;2.15;TIMS_ID;;;;;;;;;;;;;;;;;;;;;;;;;;;;;;;;0.511158;;;;0.096005;;;;;;;;;;;;;;;;;;;;;;;;;;;;;;;;;;;;;;;;;;;;;;;;;;;;;;;;;;;;;;;;;;;;;;;;;;;
2005;[8700] SKUF^IN P. K.(2005)  [GeoReM [1018] ];samp. 40;;BALTIC SHIELD / KOLA-LAPLAND PROVINCE / PECHENGA-PASVIK GREENSTONE BELT / SOUTHERN PECHENGA GROUP - KAPLYA FORMATION;BRAGINO VOLCANIC CENTER;69.15;30.42;69.19;30.6;;;OUTCROP;;;SUBAERIAL;VOLCANIC ROCK;TRACHYDACITE;;;;;PROTEROZOIC;PALEO;;;;WHOLE ROCK;;;;;;;;;;;;;68.42;0.16;;;15.82;;;;;;;;;;0.33;;1.48;2.82;0.51;0.02;;;;;;;2.29;XRF;;;5.63;0.08;;;;;0.16;1.09;0.74;;;;;;0.01;;;;;;;;;;;;;;;;;;;;;;;;;;1.5;XRF;;;;;;;15;6;;;4;19;11;38;;;;;;56;XRF;;;669;XRF;;;;;;;173;XRF;;;;;;;;;;;;;;;;;;752;XRF;;;16;INAA;;;32;INAA;;;;12;INAA;;;1.95;INAA;;;0.53;;0.17;;;;;0.4;0.08;3.09;0.32;;;;;;;;;;;;;;3.26;XRF;;;1.23;;;;;;;;;;;;;;;;;;;;;;;;;;;;;;;;;;;;;;;;;;;;;;;;;;;;;;;;;;;;;;;;;;;;;;;;;;;;;;;;
2005;[8700] SKUF^IN P. K.(2005)  [GeoReM [1018] ];samp. 41;;BALTIC SHIELD / KOLA-LAPLAND PROVINCE / PECHENGA-PASVIK GREENSTONE BELT / SOUTHERN PECHENGA GROUP - KAPLYA FORMATION;BRAGINO VOLCANIC CENTER;69.15;30.42;69.19;30.6;;;OUTCROP;;;SUBAERIAL;VOLCANIC ROCK;TRACHYDACITE;;NA-RICH;;;PROTEROZOIC;PALEO;;;;WHOLE ROCK;;;;;;;;;;;;;69.42;0.22;;;16.42;;;;;;;;;;0;;0.91;1.34;0.47;0.03;;;;;;;0.2;XRF;;;9;0.09;;;;;0;0.97;0.46;;;;;;0.08;;;;;;;;;;;;;;;;;;;;;;;;;;1.8;XRF;;;;;;;10;65;;;4;42;16;72;;;;;;4;XRF;;;510;XRF;;;;;;;134;XRF;;;;;;;;;;;;;;;;;;310;XRF;;;20;INAA;;;39;INAA;;;;15;INAA;;;2.29;INAA;;;0.65;;0.22;;;;;0.62;0.09;3.11;0.53;;;;;;;;;;;;;;4.99;XRF;;;1.28;;;;;;;;;;;;;;;;;;;;;;;;;;;;;;;;;;;;;;;;;;;;;;;;;;;;;;;;;;;;;;;;;;;;;;;;;;;;;;;;
2005;[8700] SKUF^IN P. K.(2005)  [GeoReM [1018] ];samp. 42;;BALTIC SHIELD / KOLA-LAPLAND PROVINCE / PECHENGA-PASVIK GREENSTONE BELT / SOUTHERN PECHENGA GROUP - KAPLYA FORMATION;BRAGINO VOLCANIC CENTER;69.15;30.42;69.19;30.6;;;OUTCROP;;;SUBAERIAL;VOLCANIC ROCK;TRACHYDACITE;;NA-RICH;;;PROTEROZOIC;PALEO;;;;WHOLE ROCK;;;;;;;;;;;;;66.72;0.26;;;17.87;;;;;;;;;;0;;1.41;0.52;0.84;0.02;;;;;;;0.04;XRF;;;10.86;0.1;;;;;0.11;0.51;0.34;;;;;;0.06;;;;;;;;;;;;;;;;;;;;;;;;;;1.6;XRF;;;;;;;10;29;;;8;22;16;50;;;;;;3;XRF;;;113;XRF;;;;;;;134;XRF;;;;;;;;;;;;;;;;;;20;XRF;;;23;INAA;;;45;INAA;;;;16;INAA;;;2.7;INAA;;;0.91;;0.52;;;;;0.63;0.09;3.11;0.42;;;;;;;;;;;;;;3.5;XRF;;;1.25;;;;;;;;;;;;;;;;;;;;;;;;;;;;;;;;;;;;;;;;;;;;;;;;;;;;;;;;;;;;;;;;;;;;;;;;;;;;;;;;
2003;[8774] LLAMBIAS E. J. (2003);samp. JAR 3;;SIERRAS_ARGENTINA / ARGENTINA / CORDON DEL PORTILLO / CHOIYOI GROUP - ALGARROBO DEL AGUILA IGENOUS COMPL;CORDILLERA FRONTAL;-36.43;-67.15;-36.43;-67.15;;;OUTCROP;;;SUBAERIAL;VOLCANIC ROCK;TRACHYDACITE;;IGNIMBRITE;;;MESOZOIC;;;;;WHOLE ROCK;;;;;;;;;;;;;65.28;0.63;;;15.52;;;;;;;;;4.51;;;;3.96;2.11;0.08;;;;;;;3.57;ICPAES;;;3.92;0.32;;;;;;;;;;;;;;0.74;;;;;;;;;;;;;;;;;;;;;;;;;;;;;;;;;73;33;;;9.3;29;;;20;;;;;68;ICPMS;;;790;ICPMS;;;16;ICPMS;;;211;ICPMS;;;8.1;ICPMS;;;;;;;;;;;;;5.3;1370;ICPMS;;;32.1;ICPMS;;;64.7;ICPMS;;;6.68;26.6;ICPMS;;;4.7;ICPMS;;;1.41;3.75;0.51;2.67;0.51;1.5;0.22;1.41;0.24;5;0.55;;;;;;;0.38;15;ICPMS;;;;;5.26;ICPMS;;;1.67;;;;;;;;;;;;;;;;;;;;;;;;;;;;;;;;;;;;;;;;;;;;;;;;;;;;;;;;;;;;;;;;;;;;;;;;;;;;;;;;
2003;[8774] LLAMBIAS E. J. (2003);samp. JAR 5;;SIERRAS_ARGENTINA / ARGENTINA / CORDON DEL PORTILLO / CHOIYOI GROUP - ALGARROBO DEL AGUILA IGENOUS COMPL;CORDILLERA FRONTAL;-36.43;-67.15;-36.43;-67.15;;;OUTCROP;;;SUBAERIAL;VOLCANIC ROCK;TRACHYDACITE;;IGNIMBRITE;;;MESOZOIC;;;;;WHOLE ROCK;;;;;;;;;;;;;60.44;0.95;;;15;;;;;;;;;6.42;;;;5.04;2.91;0.11;;;;;;;2.7;ICPAES;;;4.32;0.49;;;;;;;;;;;;;;1.35;;;;;;;;;;;;;;;;;;;;;;;;;;;;;;;;;114;44;;;16;38;;;21;;;;;56;ICPMS;;;1100;ICPMS;;;18;ICPMS;;;161;ICPMS;;;9.6;ICPMS;;;;;;;;;;;;;1.4;1110;ICPMS;;;31.9;ICPMS;;;64.9;ICPMS;;;6.91;31.4;ICPMS;;;6.15;ICPMS;;;1.61;4.46;0.68;3.42;0.6;1.73;0.26;1.63;0.25;4.2;0.65;;;;;;;0.17;14;ICPMS;;;;;4.44;ICPMS;;;1.68;;;;;;;;;;;;;;;;;;;;;;;;;;;;;;;;;;;;;;;;;;;;;;;;;;;;;;;;;;;;;;;;;;;;;;;;;;;;;;;;
2003;[8774] LLAMBIAS E. J. (2003);samp. LMAS;;SIERRAS_ARGENTINA / ARGENTINA / CORDON DEL PORTILLO / CHOIYOI GROUP - ALGARROBO DEL AGUILA IGENOUS COMPL;CORDILLERA FRONTAL;-36.43;-67.15;-36.43;-67.15;;;OUTCROP;;;SUBAERIAL;VOLCANIC ROCK;TRACHYDACITE;;IGNIMBRITE;;;MESOZOIC;;;;;WHOLE ROCK;;;;;;;;;;;;;62.04;0.87;;;14.64;;;;;;;;;6.24;;;;3.87;2.31;0.07;;;;;;;2.88;ICPAES;;;3.63;0.34;;;;;;;;;;;;;;3.14;;;;;;;;;;;;;;;;;;;;;;;;;;;;;;;;;181;67;;;11;38;;;22;;;;;90;ICPMS;;;748;ICPMS;;;21;ICPMS;;;243;ICPMS;;;10;ICPMS;;;;;;;;;;;;;3.8;1290;ICPMS;;;38.1;ICPMS;;;81.2;ICPMS;;;8.31;34.7;ICPMS;;;6.68;ICPMS;;;1.58;5.02;0.71;3.61;0.66;1.89;0.27;1.73;0.25;6;0.59;;;;;;;1.2;14;ICPMS;;;;;9.18;ICPMS;;;2.53;;;;;;;;;;;;;;;;;;;;;;;;;;;;;;;;;;;;;;;;;;;;;;;;;;;;;;;;;;;;;;;;;;;;;;;;;;;;;;;;
2003;[8774] LLAMBIAS E. J. (2003);samp. LMN 1;;SIERRAS_ARGENTINA / ARGENTINA / CORDON DEL PORTILLO / CHOIYOI GROUP - ALGARROBO DEL AGUILA IGENOUS COMPL;CORDILLERA FRONTAL;-36.43;-67.15;-36.43;-67.15;;;OUTCROP;;;SUBAERIAL;VOLCANIC ROCK;TRACHYDACITE;;IGNIMBRITE;;;MESOZOIC;;;;;WHOLE ROCK;;;;;;;;;;;;;61.38;1;;;14.66;;;;;;;;;6.05;;;;4.85;3.39;0.09;;;;;;;4.22;ICPAES;;;3.35;0.47;;;;;;;;;;;;;;0.7;;;;;;;;;;;;;;;;;;;;;;;;;;;;;;;;;134;79;;;31;57;;;20;;;;;91;ICPMS;;;1310;ICPMS;;;18;ICPMS;;;207;ICPMS;;;8.8;ICPMS;;;;;;;;;;;;;3.3;1530;ICPMS;;;44.2;ICPMS;;;92;ICPMS;;;9.46;39.2;ICPMS;;;7.32;ICPMS;;;1.86;5.46;0.7;3.58;0.64;1.76;0.24;1.6;0.24;5.7;0.59;;;;;;;0.36;19;ICPMS;;;;;9.17;ICPMS;;;2.14;;;;;;;;;;;;;;;;;;;;;;;;;;;;;;;;;;;;;;;;;;;;;;;;;;;;;;;;;;;;;;;;;;;;;;;;;;;;;;;;
2003;[8774] LLAMBIAS E. J. (2003);samp. COL9822;;SIERRAS_ARGENTINA / ARGENTINA / CORDON DEL PORTILLO / CERRO COLON / CHOIYOI GROUP;CORDILLERA FRONTAL;-36.95;-67.4;-36.95;-67.4;;;OUTCROP;;;SUBAERIAL;VOLCANIC ROCK;TRACHYDACITE;;IGNIMBRITE;237000000;266000000;MESOZOIC;;;;;WHOLE ROCK;;;;;;;;;;;;;61.57;0.66;;;17.31;;;;;;;;;5.18;;;;4.72;1.46;0.09;;;;;;;2.95;ICPAES;;;4.06;0.37;;;;;;;;;;;;;;0.57;;;;;;;;;;;;;;;;;;;;;;;;;;;;;;;;;47;12;;;6.8;21;;;20;;;;;73;ICPMS;;;739;ICPMS;;;22;ICPMS;;;222;ICPMS;;;8.2;ICPMS;;;;;;;;;;;;;3.8;1360;ICPMS;;;39.7;ICPMS;;;82;ICPMS;;;8.23;35;ICPMS;;;6.26;ICPMS;;;1.52;4.71;0.69;3.84;0.7;2.09;0.32;2.06;0.32;5.3;0.52;;;;;;;0.19;11;ICPMS;;;;;7.31;ICPMS;;;1.78;;;;;;;;;;;;;;;;;;;;;;;;;;;;;;;;;;;;;;;;;;;;;;;;;;;;;;;;;;;;;;;;;;;;;;;;;;;;;;;;