Year;CITATION;SAMPLE NAME;UNIQUE_ID;LOCATION;LOCATION COMMENT;LATITUDE (MIN.);LONGITUDE (MIN.);LATITUDE (MAX.);LONGITUDE (MAX.);ELEVATION (MIN.);ELEVATION (MAX.);SAMPLING TECHNIQUE;DRILLING DEPTH (MIN.);DRILLING DEPTH (MAX.);LAND/SEA (SAMPLING);ROCK TYPE;ROCK NAME;ROCK TEXTURE;SAMPLE COMMENT;AGE (MIN.);AGE (MAX.);GEOLOGICAL AGE;GEOLOGICAL AGE PREFIX;ERUPTION YEAR;ALTERATION;ALTERATION TYPE;TYPE OF MATERIAL;MINERAL / COMPONENT;SPOT (MINERAL);CRYSTAL;RIM / CORE (MINERAL GRAINS);PRIMARY/SECONDARY;INCLUSION TYPE;SPOT (INCLUSION);MINERAL (INCLUSION);RIM / CORE (INCLUSION);HOSTMINERAL (INCLUSION);HEATING;HEATING TEMPERATURE (?C);SIO2(WT%);TIO2(WT%);ZRO2(WT%);B2O3(WT%);AL2O3(WT%);CR2O3(WT%);LA2O3(WT%);CE2O3(WT%);Y2O3(WT%);V2O3(WT%);NB2O3(WT%);TA2O5(WT%);WO3(WT%);FE2O3T(WT%);FE2O3(WT%);FEOT(WT%);FEO(WT%);CAO(WT%);MGO(WT%);MNO(WT%);BAO(WT%);SRO(WT%);NIO(WT%);ZNO(WT%);CS2O(WT%);RB2O(WT%);K2O(WT%);;;;NA2O(WT%);P2O5(WT%);H2O(WT%);;;;H2OP(WT%);H2OM(WT%);CO2(WT%);C(WT%);F(WT%);CL(WT%);SO2(WT%);SO3(WT%);S(WT%);LOI(WT%);AL(WT%);TI(WT%);FE(WT%);MG(WT%);CA(WT%);K(WT%);NA(WT%);LI(PPM);BE(PPM);B(PPM);C(PPM);F(PPM);NA(PPM);MG(PPM);AL(PPM);P(PPM);S(PPM);CL(PPM);AR40(AT/G);AR40(CCMSTP/G);AR40(MOL/G);AR40(PPB);K(PPM);CA(PPM);SC(PPM);;;;TI(PPM);;;;V(PPM);CR(PPM);MN(PPM);FE(PPM);CO(PPM);NI(PPM);CU(PPM);ZN(PPM);GA(PPM);GE(PPM);AS(PPM);SE(PPM);BR(PPM);RB(PPM): altern. values or methods;;;;SR(PPM): altern. values or methods;;;;Y(PPM): altern. values or methods;;;;ZR(PPM): altern. values or methods;;;;NB(PPM): altern. values or methods;;;;MO(PPM): altern. values or methods;;;;AG(PPM);CD(PPM);IN(PPM);SN(PPM);SB(PPM);TE(PPM);CS(PPM);BA(PPM): altern. values or methods;;;;LA(PPM): altern. values or methods;;;;CE(PPM): altern. values or methods;;;;PR(PPM);ND(PPM): altern. values or methods;;;;SM(PPM): altern. values or methods;;;;EU(PPM);GD(PPM);TB(PPM);DY(PPM);HO(PPM);ER(PPM);TM(PPM);YB(PPM);LU(PPM);HF(PPM);TA(PPM);W(PPM);RE(PPM);AU(PPM);AU(PPB);HG(PPM);HG(PPB);TL(PPM);PB(PPM): altern. values or methods;;;;PB206(PPM);BI(PPM);TH(PPM): altern. values or methods;;;;U(PPM);ND143_ND144;ND143_ND144_INI;EPSILON_ND;EPSILON_ND_INI;SM147_ND144;SR87_SR86;SR87_SR86_INI;EPSILON_SR;EPSILON_SR_INI;RB87_SR86;PB206_PB204;PB206_PB204_INI;PB206_PB207;PB206_PB208;PB207_PB204;PB207_PB204_INI;PB207_PB206;PB208_PB204;PB208_PB204_INI;PB208_PB206;HF176_HF177;HF176_HF177_INI;EPSILON_HF_INI;LU176_HF177;YB176_HF177;AR36_AR39;AR36_AR40;AR37_AR39;AR38_AR39;AR39_AR40;AR40_AR36;AR40_AR39;PB206_U238;PB207_U235;PB208_TH232;TH232_PB204;TH232_U238;U235_PB204;U238_PB204;U238_PB206;D7LI(VS LSVEC);D18O(PER MIL);D18O(VS SMOW);D18O(VS VSMOW);D56FE(VS IRMM-014);D57FE(VS IRMM-014);DD(VS SMOW);ALBITE(MOL%);ANORTHITE(MOL%);CA OLIVINE(MOL%);ENSTATITE(MOL%);FAYALITE(MOL%);FORSTERITE(MOL%);FERROSILITE(MOL%);ORTHOCLASE(MOL%);TEPHROITE(MOL%);ULVOSPINEL(MOL%);WOLLASTONITE(MOL%);AGE(KA): altern. values or methods;;;;AGE(MA): altern. values or methods;;;;;;;;AGE_PB207_PB206(MA);AGE_PB207_U235(MA);AGE_PB206_U238(MA): altern. values or methods;;;;;;AGE_PB208_TH232(MA);
2014;[18586] BACHMANN O. (2014);samp. CRT09-05;;NORTH AMERICAN CORDILLERA - CENOZOIC/QUATERNARY / CORDILLERA UNITED STATES / COLORADO / SAN JUAN VOLCANIC FIELD / CARPENTER RIDGE TUFF;BACHELOR CALDERA, RIBBON MESA - CATTLE MOUNTAIN ROAD;37.5;-106;38.5;-107.5;;;OUTCROP;;;SUBAERIAL;VOLCANIC ROCK;TRACHYDACITE;;FIAMME;27600000;27600000;OLIGOCENE;;;;;MINERAL / COMPONENT (INCL. GROUNDMASS);PLAGIOCLASE;CRT09 5C PL4 C4;;;PRIMARY;;;;;;;;58.2;;;;25.35;;;;;;;;;;;0.3622;;7.56;;;;0.2501;;;;;0.9488;EMP (EPMA);;;6.7;;;;;;;;;;;;;;;;;;;;;;;;;;;;;;;;;;;;;;;;;;;;;;;;;;;;;;;;;;;;;;;;;;;;;;;;;;;;;;;;;;;;;;;;;;;;;;;;;;;;;;;;;;;;;;;;;;;;;;;;;;;;;;;;;;;;;;;;;;;;;;;;;;;;;;;;;;;;;;;;;;;;;;;;;;;;;;;;;;;;;;;;;;;;;;36.0938578329883;;;;;;;;;;;;;;;;;;;;;;;;;;;;;;;
2014;[18586] BACHMANN O. (2014);samp. CRT09-05;;NORTH AMERICAN CORDILLERA - CENOZOIC/QUATERNARY / CORDILLERA UNITED STATES / COLORADO / SAN JUAN VOLCANIC FIELD / CARPENTER RIDGE TUFF;BACHELOR CALDERA, RIBBON MESA - CATTLE MOUNTAIN ROAD;37.5;-106;38.5;-107.5;;;OUTCROP;;;SUBAERIAL;VOLCANIC ROCK;TRACHYDACITE;;FIAMME;27600000;27600000;OLIGOCENE;;;;;MINERAL / COMPONENT (INCL. GROUNDMASS);PLAGIOCLASE;CRT09 5C PL4 R1;;;PRIMARY;;;;;;;;59.28;;;;24.9;;;;;;;;;;;0.3726;;6.64;;;;0.1964;;;;;0.8744;EMP (EPMA);;;7.17;;;;;;;;;;;;;;;;;;;;;;;;;;;;;;;;;;;;;;;;;;;;;;;;;;;;;;;;;;;;;;;;;;;;;;;;;;;;;;;;;;;;;;;;;;;;;;;;;;;;;;;;;;;;;;;;;;;;;;;;;;;;;;;;;;;;;;;;;;;;;;;;;;;;;;;;;;;;;;;;;;;;;;;;;;;;;;;;;;;;;;;;;;;;;;31.9676226641351;;;;;;;;;;;;;;;;;;;;;;;;;;;;;;;
2014;[18586] BACHMANN O. (2014);samp. CRT09-05;;NORTH AMERICAN CORDILLERA - CENOZOIC/QUATERNARY / CORDILLERA UNITED STATES / COLORADO / SAN JUAN VOLCANIC FIELD / CARPENTER RIDGE TUFF;BACHELOR CALDERA, RIBBON MESA - CATTLE MOUNTAIN ROAD;37.5;-106;38.5;-107.5;;;OUTCROP;;;SUBAERIAL;VOLCANIC ROCK;TRACHYDACITE;;FIAMME;27600000;27600000;OLIGOCENE;;;;;MINERAL / COMPONENT (INCL. GROUNDMASS);GLASS;CRT09-5 G2;;;PRIMARY;;;;;;;;69.47;;;;15.72;;;;;;;;;;;2.33;;1.53;0.44;;;;;;;;4.7;EMP (EPMA);;;5.56;;;;;;;;;;;;;;;;;;;;;;;;;;;;;;;;;;;;;;;;;;;;;;;;;;;;;;;;;;;;;;;;;;;;;;;;;;;;;;;;;;;;;;;;;;;;2074;EMP (EPMA);;;;;;;;;;;;;;;;;;;;;;;;;;;;;;;;;;;;;;;;;;;;;;;;;;;;;;;;;;;;;;;;;;;;;;;;;;;;;;;;;;;;;;;;;;;;;;;;;;;;;;;;;;;;;;;;;;;;;;;;;;;;;;;;
2014;[18586] BACHMANN O. (2014);samp. CRT09-05;;NORTH AMERICAN CORDILLERA - CENOZOIC/QUATERNARY / CORDILLERA UNITED STATES / COLORADO / SAN JUAN VOLCANIC FIELD / CARPENTER RIDGE TUFF;BACHELOR CALDERA, RIBBON MESA - CATTLE MOUNTAIN ROAD;37.5;-106;38.5;-107.5;;;OUTCROP;;;SUBAERIAL;VOLCANIC ROCK;TRACHYDACITE;;FIAMME;27600000;27600000;OLIGOCENE;;;;;MINERAL / COMPONENT (INCL. GROUNDMASS);GLASS;CRT09-5 G4;;;PRIMARY;;;;;;;;69.61;;;;16.11;;;;;;;;;;;2.14;;3.07;0.63;;;;;;;;2;EMP (EPMA);;;6.26;;;;;;;;;;;;;;;;;;;;;;;;;;;;;;;;;;;;;;;;;;;;;;;;;;;;;;;;;;;;;;;;;;;;;;;;;;;;;;;;;;;;;;;;;;;;1465;EMP (EPMA);;;;;;;;;;;;;;;;;;;;;;;;;;;;;;;;;;;;;;;;;;;;;;;;;;;;;;;;;;;;;;;;;;;;;;;;;;;;;;;;;;;;;;;;;;;;;;;;;;;;;;;;;;;;;;;;;;;;;;;;;;;;;;;;
2014;[18586] BACHMANN O. (2014);samp. CRT09-05;;NORTH AMERICAN CORDILLERA - CENOZOIC/QUATERNARY / CORDILLERA UNITED STATES / COLORADO / SAN JUAN VOLCANIC FIELD / CARPENTER RIDGE TUFF;BACHELOR CALDERA, RIBBON MESA - CATTLE MOUNTAIN ROAD;37.5;-106;38.5;-107.5;;;OUTCROP;;;SUBAERIAL;VOLCANIC ROCK;TRACHYDACITE;;FIAMME;27600000;27600000;OLIGOCENE;;;;;MINERAL / COMPONENT (INCL. GROUNDMASS);GLASS;CRT09-5 G3;;;PRIMARY;;;;;;;;70.02;;;;15.56;;;;;;;;;;;2.39;;2.16;0.5;;;;;;;;2.7;EMP (EPMA);;;6.58;;;;;;;;;;;;;;;;;;;;;;;;;;;;;;;;;;;;;;;;;;;;;;;;;;;;;;;;;;;;;;;;;;;;;;;;;;;;;;;;;;;;;;;;;;;;752;EMP (EPMA);;;;;;;;;;;;;;;;;;;;;;;;;;;;;;;;;;;;;;;;;;;;;;;;;;;;;;;;;;;;;;;;;;;;;;;;;;;;;;;;;;;;;;;;;;;;;;;;;;;;;;;;;;;;;;;;;;;;;;;;;;;;;;;;
2014;[18586] BACHMANN O. (2014);samp. CRT09-05;;NORTH AMERICAN CORDILLERA - CENOZOIC/QUATERNARY / CORDILLERA UNITED STATES / COLORADO / SAN JUAN VOLCANIC FIELD / CARPENTER RIDGE TUFF;BACHELOR CALDERA, RIBBON MESA - CATTLE MOUNTAIN ROAD;37.5;-106;38.5;-107.5;;;OUTCROP;;;SUBAERIAL;VOLCANIC ROCK;TRACHYDACITE;;FIAMME;27600000;27600000;OLIGOCENE;;;;;MINERAL / COMPONENT (INCL. GROUNDMASS);GLASS;CRT09-5 G9;;;PRIMARY;;;;;;;;72.46;;;;14.59;;;;;;;;;;;1;;0.82;0.12;;;;;;;;6.77;EMP (EPMA);;;3.89;;;;;;;;;;;;;;;;;;;;;;;;;;;;;;;;;;;;;;;;;;;;;;;;;;;;;;;;;;;;;;;;;;;;;;;;;;;;;;;;;;;;;;;;;;;;2970;EMP (EPMA);;;;;;;;;;;;;;;;;;;;;;;;;;;;;;;;;;;;;;;;;;;;;;;;;;;;;;;;;;;;;;;;;;;;;;;;;;;;;;;;;;;;;;;;;;;;;;;;;;;;;;;;;;;;;;;;;;;;;;;;;;;;;;;;
2014;[18586] BACHMANN O. (2014);samp. CRT09-05;;NORTH AMERICAN CORDILLERA - CENOZOIC/QUATERNARY / CORDILLERA UNITED STATES / COLORADO / SAN JUAN VOLCANIC FIELD / CARPENTER RIDGE TUFF;BACHELOR CALDERA, RIBBON MESA - CATTLE MOUNTAIN ROAD;37.5;-106;38.5;-107.5;;;OUTCROP;;;SUBAERIAL;VOLCANIC ROCK;TRACHYDACITE;;FIAMME;27600000;27600000;OLIGOCENE;;;;;MINERAL / COMPONENT (INCL. GROUNDMASS);GLASS;CRT09-5 G6;;;PRIMARY;;;;;;;;72.73;;;;14.4;;;;;;;;;;;1.16;;0.66;0.06;;;;;;;;6.39;EMP (EPMA);;;4.6;;;;;;;;;;;;;;;;;;;;;;;;;;;;;;;;;;;;;;;;;;;;;;;;;;;;;;;;;;;;;;;;;;;;;;;;;;;;;;;;;;;;;;;;;;;;100;EMP (EPMA);;;;;;;;;;;;;;;;;;;;;;;;;;;;;;;;;;;;;;;;;;;;;;;;;;;;;;;;;;;;;;;;;;;;;;;;;;;;;;;;;;;;;;;;;;;;;;;;;;;;;;;;;;;;;;;;;;;;;;;;;;;;;;;;
2014;[18586] BACHMANN O. (2014);samp. CRT09-05;;NORTH AMERICAN CORDILLERA - CENOZOIC/QUATERNARY / CORDILLERA UNITED STATES / COLORADO / SAN JUAN VOLCANIC FIELD / CARPENTER RIDGE TUFF;BACHELOR CALDERA, RIBBON MESA - CATTLE MOUNTAIN ROAD;37.5;-106;38.5;-107.5;;;OUTCROP;;;SUBAERIAL;VOLCANIC ROCK;TRACHYDACITE;;FIAMME;27600000;27600000;OLIGOCENE;;;;;MINERAL / COMPONENT (INCL. GROUNDMASS);GLASS;CRT09-5 G7;;;PRIMARY;;;;;;;;73.44;;;;14.31;;;;;;;;;;;0.86;;0.35;0.13;;;;;;;;7.57;EMP (EPMA);;;2.97;;;;;;;;;;;;;;;;;;;;;;;;;;;;;;;;;;;;;;;;;;;;;;;;;;;;;;;;;;;;;;;;;;;;;;;;;;;;;;;;;;;;;;;;;;;;3295;EMP (EPMA);;;;;;;;;;;;;;;;;;;;;;;;;;;;;;;;;;;;;;;;;;;;;;;;;;;;;;;;;;;;;;;;;;;;;;;;;;;;;;;;;;;;;;;;;;;;;;;;;;;;;;;;;;;;;;;;;;;;;;;;;;;;;;;;
2014;[18586] BACHMANN O. (2014);samp. CRT09-05;;NORTH AMERICAN CORDILLERA - CENOZOIC/QUATERNARY / CORDILLERA UNITED STATES / COLORADO / SAN JUAN VOLCANIC FIELD / CARPENTER RIDGE TUFF;BACHELOR CALDERA, RIBBON MESA - CATTLE MOUNTAIN ROAD;37.5;-106;38.5;-107.5;;;OUTCROP;;;SUBAERIAL;VOLCANIC ROCK;TRACHYDACITE;;FIAMME;27600000;27600000;OLIGOCENE;;;;;MINERAL / COMPONENT (INCL. GROUNDMASS);SANIDINE;CRT09-5 SAN 1;;;PRIMARY;;;;;;;;60.29;;;;20.14;;;;;;;;;;;0.32;;0.52;;;6.62;;;;;;8.84;EMP (EPMA);;;3.79;;;;;;;;;;;;;;;;;;;;;;;;;;;;;;;;;;;;;;;;;;;;;;;;;;;;;;;;;;;;;;;;;;;;;;;;;;;;;;;;;;;;;;;;;;;;;;;;;;;;;;;;;;;;;;;;;;;;;;;;;;;;;;;;;;;;;;;;;;;;;;;;;;;;;;;;;;;;;;;;;;;;;;;;;;;;;;;;;;;;;;;;;;;;;33.2812805726501;2.52344567418063;;;;;;51.0769772008889;;;;;;;;;;;;;;;;;;;;;;;;;
2014;[18586] BACHMANN O. (2014);samp. CRT09-05;;NORTH AMERICAN CORDILLERA - CENOZOIC/QUATERNARY / CORDILLERA UNITED STATES / COLORADO / SAN JUAN VOLCANIC FIELD / CARPENTER RIDGE TUFF;BACHELOR CALDERA, RIBBON MESA - CATTLE MOUNTAIN ROAD;37.5;-106;38.5;-107.5;;;OUTCROP;;;SUBAERIAL;VOLCANIC ROCK;TRACHYDACITE;;FIAMME;27600000;27600000;OLIGOCENE;;;;;MINERAL / COMPONENT (INCL. GROUNDMASS);SANIDINE;CRT09-5 SAN 1;;;PRIMARY;;;;;;;;65.71;;;;19.36;;;;;;;;;;;0.09;;0.49;;;0.87;;;;;;9.83;EMP (EPMA);;;4.38;;;;;;;;;;;;;;;;;;;;;;;;;;;;;;;;;;;;;;;;;;;;;;;;;;;;;;;;;;;;;;;;;;;;;;;;;;;;;;;;;;;;;;;;;;;;;;;;;;;;;;;;;;;;;;;;;;;;;;;;;;;;;;;;;;;;;;;;;;;;;;;;;;;;;;;;;;;;;;;;;;;;;;;;;;;;;;;;;;;;;;;;;;;;;38.7095185025586;2.39314788212021;;;;;;57.1622454488293;;;;;;;;;;;;;;;;;;;;;;;;;
2014;[18586] BACHMANN O. (2014);samp. CRT09-05;;NORTH AMERICAN CORDILLERA - CENOZOIC/QUATERNARY / CORDILLERA UNITED STATES / COLORADO / SAN JUAN VOLCANIC FIELD / CARPENTER RIDGE TUFF;BACHELOR CALDERA, RIBBON MESA - CATTLE MOUNTAIN ROAD;37.5;-106;38.5;-107.5;;;OUTCROP;;;SUBAERIAL;VOLCANIC ROCK;TRACHYDACITE;;FIAMME;27600000;27600000;OLIGOCENE;;;;;MINERAL / COMPONENT (INCL. GROUNDMASS);SANIDINE;CRT08-6 SAN 4;;;PRIMARY;;;;;;;;64.69;;;;19.63;;;;;;;;;;;0.23;;0.46;;;2.15;;;;;;9.18;EMP (EPMA);;;4.23;;;;;;;;;;;;;;;;;;;;;;;;;;;;;;;;;;;;;;;;;;;;;;;;;;;;;;;;;;;;;;;;;;;;;;;;;;;;;;;;;;;;;;;;;;;;;;;;;;;;;;;;;;;;;;;;;;;;;;;;;;;;;;;;;;;;;;;;;;;;;;;;;;;;;;;;;;;;;;;;;;;;;;;;;;;;;;;;;;;;;;;;;;;;;38.4209138623037;2.30895225356293;;;;;;54.8633229372606;;;;;;;;;;;;;;;;;;;;;;;;;
2014;[18586] BACHMANN O. (2014);samp. CRT09-05;;NORTH AMERICAN CORDILLERA - CENOZOIC/QUATERNARY / CORDILLERA UNITED STATES / COLORADO / SAN JUAN VOLCANIC FIELD / CARPENTER RIDGE TUFF;BACHELOR CALDERA, RIBBON MESA - CATTLE MOUNTAIN ROAD;37.5;-106;38.5;-107.5;;;OUTCROP;;;SUBAERIAL;VOLCANIC ROCK;TRACHYDACITE;;FIAMME;27600000;27600000;OLIGOCENE;;;;;MINERAL / COMPONENT (INCL. GROUNDMASS);SANIDINE;CRT08-6 SAN 1;;;PRIMARY;;;;;;;;62.05;;;;19.17;;;;;;;;;;;0.22;;0.47;;;2.95;;;;;;9.48;EMP (EPMA);;;4.15;;;;;;;;;;;;;;;;;;;;;;;;;;;;;;;;;;;;;;;;;;;;;;;;;;;;;;;;;;;;;;;;;;;;;;;;;;;;;;;;;;;;;;;;;;;;;;;;;;;;;;;;;;;;;;;;;;;;;;;;;;;;;;;;;;;;;;;;;;;;;;;;;;;;;;;;;;;;;;;;;;;;;;;;;;;;;;;;;;;;;;;;;;;;;36.6832070817925;2.29586768947761;;;;;;55.1365568474464;;;;;;;;;;;;;;;;;;;;;;;;;
2014;[18586] BACHMANN O. (2014);samp. CRT09-05;;NORTH AMERICAN CORDILLERA - CENOZOIC/QUATERNARY / CORDILLERA UNITED STATES / COLORADO / SAN JUAN VOLCANIC FIELD / CARPENTER RIDGE TUFF;BACHELOR CALDERA, RIBBON MESA - CATTLE MOUNTAIN ROAD;37.5;-106;38.5;-107.5;;;OUTCROP;;;SUBAERIAL;VOLCANIC ROCK;TRACHYDACITE;;FIAMME;27600000;27600000;OLIGOCENE;;;;;MINERAL / COMPONENT (INCL. GROUNDMASS);SANIDINE;CRT08-6 SAN 1;;;PRIMARY;;;;;;;;63.59;;;;18.9;;;;;;;;;;;0.33;;0.68;;;1.87;;;;;;8.5;EMP (EPMA);;;4.51;;;;;;;;;;;;;;;;;;;;;;;;;;;;;;;;;;;;;;;;;;;;;;;;;;;;;;;;;;;;;;;;;;;;;;;;;;;;;;;;;;;;;;;;;;;;;;;;;;;;;;;;;;;;;;;;;;;;;;;;;;;;;;;;;;;;;;;;;;;;;;;;;;;;;;;;;;;;;;;;;;;;;;;;;;;;;;;;;;;;;;;;;;;;;41.3738886151831;3.44737485183146;;;;;;51.3074970184914;;;;;;;;;;;;;;;;;;;;;;;;;
2014;[18586] BACHMANN O. (2014);samp. CRT09-05;;NORTH AMERICAN CORDILLERA - CENOZOIC/QUATERNARY / CORDILLERA UNITED STATES / COLORADO / SAN JUAN VOLCANIC FIELD / CARPENTER RIDGE TUFF;BACHELOR CALDERA, RIBBON MESA - CATTLE MOUNTAIN ROAD;37.5;-106;38.5;-107.5;;;OUTCROP;;;SUBAERIAL;VOLCANIC ROCK;TRACHYDACITE;;FIAMME;27600000;27600000;OLIGOCENE;;;;;MINERAL / COMPONENT (INCL. GROUNDMASS);SANIDINE;CRT09-10A SAN 1;;;PRIMARY;;;;;;;;58.13;;;;21.08;;;;;;;;;;;0.25;;0.89;;;9.03;;;;;;7.53;EMP (EPMA);;;3.72;;;;;;;;;;;;;;;;;;;;;;;;;;;;;;;;;;;;;;;;;;;;;;;;;;;;;;;;;;;;;;;;;;;;;;;;;;;;;;;;;;;;;;;;;;;;;;;;;;;;;;;;;;;;;;;;;;;;;;;;;;;;;;;;;;;;;;;;;;;;;;;;;;;;;;;;;;;;;;;;;;;;;;;;;;;;;;;;;;;;;;;;;;;;;33.2019923310987;4.38976234768533;;;;;;44.2209720701602;;;;;;;;;;;;;;;;;;;;;;;;;
2014;[18586] BACHMANN O. (2014);samp. CRT09-10A;;NORTH AMERICAN CORDILLERA - CENOZOIC/QUATERNARY / CORDILLERA UNITED STATES / COLORADO / SAN JUAN VOLCANIC FIELD / CARPENTER RIDGE TUFF;BACHELOR CALDERA, SOUTHERN EDGE OF CARPENTER RODGE;37.5;-106;38.5;-107.5;;;OUTCROP;;;SUBAERIAL;VOLCANIC ROCK;TRACHYDACITE;;CRYSTAL-RICH PUMICE;27600000;27600000;OLIGOCENE;;;;;MINERAL / COMPONENT (INCL. GROUNDMASS);SANIDINE;CRT09-10ALINE#1.1;;;PRIMARY;;;;;;;;65.2;;;;18.43;;;;;;;;;;;0.0859;;0.2832;;;1.3685;;;;;;10.19;EMP (EPMA);;;4.17;;;;;;;;;;;;;;;;;;;;;;;;;;;;;;;;;;;;;;;;;;;;;;;;;;;;;;;;;;;;;;;;;;;;;;;;;;;;;;;;;;;;;;;;;;;;;;;;;;;;;;;;;;;;;;;;;;;;;;;;;;;;;;;;;;;;;;;;;;;;;;;;;;;;;;;;;;;;;;;;;;;;;;;;;;;;;;;;;;;;;;;;;;;;;36.7720690078985;1.38008252873668;;;;;;59.1246113969492;;;;;;;;;;;;;;;;;;;;;;;;;
2014;[18586] BACHMANN O. (2014);samp. CRT09-10A;;NORTH AMERICAN CORDILLERA - CENOZOIC/QUATERNARY / CORDILLERA UNITED STATES / COLORADO / SAN JUAN VOLCANIC FIELD / CARPENTER RIDGE TUFF;BACHELOR CALDERA, SOUTHERN EDGE OF CARPENTER RODGE;37.5;-106;38.5;-107.5;;;OUTCROP;;;SUBAERIAL;VOLCANIC ROCK;TRACHYDACITE;;CRYSTAL-RICH PUMICE;27600000;27600000;OLIGOCENE;;;;;MINERAL / COMPONENT (INCL. GROUNDMASS);SANIDINE;CRT09-10ALINE#1.2;;;PRIMARY;;;;;;;;64.67;;;;18.16;;;;;;;;;;;0.1579;;0.2752;;;1.4388;;;;;;10.48;EMP (EPMA);;;4.04;;;;;;;;;;;;;;;;;;;;;;;;;;;;;;;;;;;;;;;;;;;;;;;;;;;;;;;;;;;;;;;;;;;;;;;;;;;;;;;;;;;;;;;;;;;;;;;;;;;;;;;;;;;;;;;;;;;;;;;;;;;;;;;;;;;;;;;;;;;;;;;;;;;;;;;;;;;;;;;;;;;;;;;;;;;;;;;;;;;;;;;;;;;;;35.4001350907457;1.33260605182642;;;;;;60.4222565704377;;;;;;;;;;;;;;;;;;;;;;;;;
2014;[18586] BACHMANN O. (2014);samp. CRT09-10A;;NORTH AMERICAN CORDILLERA - CENOZOIC/QUATERNARY / CORDILLERA UNITED STATES / COLORADO / SAN JUAN VOLCANIC FIELD / CARPENTER RIDGE TUFF;BACHELOR CALDERA, SOUTHERN EDGE OF CARPENTER RODGE;37.5;-106;38.5;-107.5;;;OUTCROP;;;SUBAERIAL;VOLCANIC ROCK;TRACHYDACITE;;CRYSTAL-RICH PUMICE;27600000;27600000;OLIGOCENE;;;;;MINERAL / COMPONENT (INCL. GROUNDMASS);SANIDINE;CRT09-10ALINE#1.3;;;PRIMARY;;;;;;;;65.11;;;;18.27;;;;;;;;;;;0.1417;;0.2881;;;1.3063;;;;;;10.37;EMP (EPMA);;;4.04;;;;;;;;;;;;;;;;;;;;;;;;;;;;;;;;;;;;;;;;;;;;;;;;;;;;;;;;;;;;;;;;;;;;;;;;;;;;;;;;;;;;;;;;;;;;;;;;;;;;;;;;;;;;;;;;;;;;;;;;;;;;;;;;;;;;;;;;;;;;;;;;;;;;;;;;;;;;;;;;;;;;;;;;;;;;;;;;;;;;;;;;;;;;;35.6977598884174;1.40680095557653;;;;;;60.2907184511003;;;;;;;;;;;;;;;;;;;;;;;;;
2014;[18586] BACHMANN O. (2014);samp. CRT09-10A;;NORTH AMERICAN CORDILLERA - CENOZOIC/QUATERNARY / CORDILLERA UNITED STATES / COLORADO / SAN JUAN VOLCANIC FIELD / CARPENTER RIDGE TUFF;BACHELOR CALDERA, SOUTHERN EDGE OF CARPENTER RODGE;37.5;-106;38.5;-107.5;;;OUTCROP;;;SUBAERIAL;VOLCANIC ROCK;TRACHYDACITE;;CRYSTAL-RICH PUMICE;27600000;27600000;OLIGOCENE;;;;;MINERAL / COMPONENT (INCL. GROUNDMASS);SANIDINE;CRT09-10ALINE#1.4;;;PRIMARY;;;;;;;;65.07;;;;18.46;;;;;;;;;;;0.1538;;0.2278;;;1.3169;;;;;;10.13;EMP (EPMA);;;4.3;;;;;;;;;;;;;;;;;;;;;;;;;;;;;;;;;;;;;;;;;;;;;;;;;;;;;;;;;;;;;;;;;;;;;;;;;;;;;;;;;;;;;;;;;;;;;;;;;;;;;;;;;;;;;;;;;;;;;;;;;;;;;;;;;;;;;;;;;;;;;;;;;;;;;;;;;;;;;;;;;;;;;;;;;;;;;;;;;;;;;;;;;;;;;37.7577497169976;1.10540433892578;;;;;;58.5273953299756;;;;;;;;;;;;;;;;;;;;;;;;;
2014;[18586] BACHMANN O. (2014);samp. CRT09-10A;;NORTH AMERICAN CORDILLERA - CENOZOIC/QUATERNARY / CORDILLERA UNITED STATES / COLORADO / SAN JUAN VOLCANIC FIELD / CARPENTER RIDGE TUFF;BACHELOR CALDERA, SOUTHERN EDGE OF CARPENTER RODGE;37.5;-106;38.5;-107.5;;;OUTCROP;;;SUBAERIAL;VOLCANIC ROCK;TRACHYDACITE;;CRYSTAL-RICH PUMICE;27600000;27600000;OLIGOCENE;;;;;MINERAL / COMPONENT (INCL. GROUNDMASS);SANIDINE;CRT09-10ALINE#1.5;;;PRIMARY;;;;;;;;65.02;;;;18.38;;;;;;;;;;;0.1514;;0.2535;;;1.3941;;;;;;10.34;EMP (EPMA);;;4.06;;;;;;;;;;;;;;;;;;;;;;;;;;;;;;;;;;;;;;;;;;;;;;;;;;;;;;;;;;;;;;;;;;;;;;;;;;;;;;;;;;;;;;;;;;;;;;;;;;;;;;;;;;;;;;;;;;;;;;;;;;;;;;;;;;;;;;;;;;;;;;;;;;;;;;;;;;;;;;;;;;;;;;;;;;;;;;;;;;;;;;;;;;;;;35.8714609191221;1.23774389196127;;;;;;60.1112381253437;;;;;;;;;;;;;;;;;;;;;;;;;
2014;[18586] BACHMANN O. (2014);samp. CRT09-10A;;NORTH AMERICAN CORDILLERA - CENOZOIC/QUATERNARY / CORDILLERA UNITED STATES / COLORADO / SAN JUAN VOLCANIC FIELD / CARPENTER RIDGE TUFF;BACHELOR CALDERA, SOUTHERN EDGE OF CARPENTER RODGE;37.5;-106;38.5;-107.5;;;OUTCROP;;;SUBAERIAL;VOLCANIC ROCK;TRACHYDACITE;;CRYSTAL-RICH PUMICE;27600000;27600000;OLIGOCENE;;;;;MINERAL / COMPONENT (INCL. GROUNDMASS);SANIDINE;CRT09-10ALINE#1.6;;;PRIMARY;;;;;;;;65.14;;;;18.57;;;;;;;;;;;0.1422;;0.2536;;;1.2479;;;;;;10.47;EMP (EPMA);;;4.16;;;;;;;;;;;;;;;;;;;;;;;;;;;;;;;;;;;;;;;;;;;;;;;;;;;;;;;;;;;;;;;;;;;;;;;;;;;;;;;;;;;;;;;;;;;;;;;;;;;;;;;;;;;;;;;;;;;;;;;;;;;;;;;;;;;;;;;;;;;;;;;;;;;;;;;;;;;;;;;;;;;;;;;;;;;;;;;;;;;;;;;;;;;;;36.2660273006772;1.22175943109778;;;;;;60.0572495691752;;;;;;;;;;;;;;;;;;;;;;;;;
2014;[18586] BACHMANN O. (2014);samp. CRT09-10A;;NORTH AMERICAN CORDILLERA - CENOZOIC/QUATERNARY / CORDILLERA UNITED STATES / COLORADO / SAN JUAN VOLCANIC FIELD / CARPENTER RIDGE TUFF;BACHELOR CALDERA, SOUTHERN EDGE OF CARPENTER RODGE;37.5;-106;38.5;-107.5;;;OUTCROP;;;SUBAERIAL;VOLCANIC ROCK;TRACHYDACITE;;CRYSTAL-RICH PUMICE;27600000;27600000;OLIGOCENE;;;;;MINERAL / COMPONENT (INCL. GROUNDMASS);SANIDINE;CRT09-10ALINE#1.7;;;PRIMARY;;;;;;;;65.29;;;;18.46;;;;;;;;;;;0.1282;;0.2936;;;1.4057;;;;;;10.26;EMP (EPMA);;;3.97;;;;;;;;;;;;;;;;;;;;;;;;;;;;;;;;;;;;;;;;;;;;;;;;;;;;;;;;;;;;;;;;;;;;;;;;;;;;;;;;;;;;;;;;;;;;;;;;;;;;;;;;;;;;;;;;;;;;;;;;;;;;;;;;;;;;;;;;;;;;;;;;;;;;;;;;;;;;;;;;;;;;;;;;;;;;;;;;;;;;;;;;;;;;;35.4453864421446;1.44862193668888;;;;;;60.2738139784588;;;;;;;;;;;;;;;;;;;;;;;;;
2014;[18586] BACHMANN O. (2014);samp. CRT09-10A;;NORTH AMERICAN CORDILLERA - CENOZOIC/QUATERNARY / CORDILLERA UNITED STATES / COLORADO / SAN JUAN VOLCANIC FIELD / CARPENTER RIDGE TUFF;BACHELOR CALDERA, SOUTHERN EDGE OF CARPENTER RODGE;37.5;-106;38.5;-107.5;;;OUTCROP;;;SUBAERIAL;VOLCANIC ROCK;TRACHYDACITE;;CRYSTAL-RICH PUMICE;27600000;27600000;OLIGOCENE;;;;;MINERAL / COMPONENT (INCL. GROUNDMASS);SANIDINE;CRT09-10ALINE#1.8;;;PRIMARY;;;;;;;;65.26;;;;18.3;;;;;;;;;;;0.1254;;0.248;;;1.3024;;;;;;10.24;EMP (EPMA);;;4.12;;;;;;;;;;;;;;;;;;;;;;;;;;;;;;;;;;;;;;;;;;;;;;;;;;;;;;;;;;;;;;;;;;;;;;;;;;;;;;;;;;;;;;;;;;;;;;;;;;;;;;;;;;;;;;;;;;;;;;;;;;;;;;;;;;;;;;;;;;;;;;;;;;;;;;;;;;;;;;;;;;;;;;;;;;;;;;;;;;;;;;;;;;;;;36.4968057158735;1.21405711331018;;;;;;59.6856186970214;;;;;;;;;;;;;;;;;;;;;;;;;